# vtk DataFile Version 2.0
vtk file: 2D Unstructured Grid a_1
ASCII

DATASET UNSTRUCTURED_GRID
POINTS 9 float
 +2.45600000E-01 -7.56400000E-01 +0.00000000E+00 +7.40800000E-01 -7.39600000E-01 +0.00000000E+00
 +7.56000000E-01 -7.61200000E-01 +0.00000000E+00 +2.77600000E-01 -7.02000000E-01 +0.00000000E+00
 +5.04800000E-01 -2.07600000E-01 +0.00000000E+00 +4.88800000E-01 -2.07600000E-01 +0.00000000E+00
 +2.20000000E-01 -7.73200000E-01 +0.00000000E+00 +8.00000000E-01 -7.76400000E-01 +0.00000000E+00
 +8.00000000E-01 -7.92400000E-01 +0.00000000E+00

CELLS 5 22
4 0 1 2 3
3 3 2 4
3 5 3 4
3 5 6 3
4 1 7 8 2

CELL_TYPES 5
 9 5 5 5 9
CELL_DATA 5
SCALARS elemType int 1
LOOKUP_TABLE my_color
 1 0 0 0 1
LOOKUP_TABLE my_color 2
1.0 0.0 1.0 1.0
0.0 1.0 1.0 1.0

SCALARS surfState int 1
LOOKUP_TABLE default
 1 1 1 1 1
SCALARS refLevel int 1
LOOKUP_TABLE default
 1 1 1 1 1

SCALARS minAngle int 1
LOOKUP_TABLE min
 32 10 58 57 -109

SCALARS maxAngle int 1
LOOKUP_TABLE max
 222 12 53 104 247

SCALARS debugging int 1
LOOKUP_TABLE default
 0 0 0 0 0