# vtk DataFile Version 2.0
vtk file: 2D Unstructured Grid a_2
ASCII

DATASET UNSTRUCTURED_GRID
POINTS 21 float
 +2.45600000E-01 -7.56400000E-01 +0.00000000E+00 +3.71200000E-01 -7.76400000E-01 +0.00000000E+00
 +3.71200000E-01 -7.92400000E-01 +0.00000000E+00 +2.77600000E-01 -7.02000000E-01 +0.00000000E+00
 +3.60800000E-01 -6.04400000E-01 +0.00000000E+00 +3.74400000E-01 -5.70000000E-01 +0.00000000E+00
 +2.20000000E-01 -7.73200000E-01 +0.00000000E+00 +3.39320457E-01 -5.57518021E-01 +0.00000000E+00
 +5.79200000E-01 -7.92400000E-01 +0.00000000E+00 +7.40800000E-01 -7.39600000E-01 +0.00000000E+00
 +7.56000000E-01 -7.61200000E-01 +0.00000000E+00 +5.79200000E-01 -7.76400000E-01 +0.00000000E+00
 +6.60953842E-01 -5.59607814E-01 +0.00000000E+00 +5.87200000E-01 -6.04400000E-01 +0.00000000E+00
 +4.73600000E-01 -3.30800000E-01 +0.00000000E+00 +5.81940374E-01 -3.81492706E-01 +0.00000000E+00
 +5.04800000E-01 -2.07600000E-01 +0.00000000E+00 +4.15452607E-01 -3.79299580E-01 +0.00000000E+00
 +4.88800000E-01 -2.07600000E-01 +0.00000000E+00 +8.00000000E-01 -7.76400000E-01 +0.00000000E+00
 +8.00000000E-01 -7.92400000E-01 +0.00000000E+00

CELLS 11 50
4 0 1 2 3
3 2 4 3
3 2 5 4
3 6 4 7
4 8 9 10 11
4 11 10 12 13
4 2 11 13 5
3 14 15 16
3 4 14 17
4 17 14 16 18
4 9 19 20 10

CELL_TYPES 11
 9 5 5 5 9 9 9 5 5 9 9
CELL_DATA 11
SCALARS elemType int 1
LOOKUP_TABLE my_color
 1 0 0 0 1 1 1 0 0 1 1
LOOKUP_TABLE my_color 2
1.0 0.0 1.0 1.0
0.0 1.0 1.0 1.0

SCALARS surfState int 1
LOOKUP_TABLE default
 1 1 1 1 1 1 1 1 1 1 1
SCALARS refLevel int 1
LOOKUP_TABLE default
 2 2 2 2 2 2 2 2 2 2 2

SCALARS minAngle int 1
LOOKUP_TABLE min
 21 17 56 49 18 20 8 21 51 62 -109

SCALARS maxAngle int 1
LOOKUP_TABLE max
 224 33 95 55 210 33 7 40 83 54 247

SCALARS debugging int 1
LOOKUP_TABLE default
 0 0 0 0 0 0 0 0 0 0 0