# vtk DataFile Version 2.0
vtk file: 2D Unstructured Grid a_4
ASCII

DATASET UNSTRUCTURED_GRID
POINTS 108 float
 +2.00000000E-01 -7.92400000E-01 +0.00000000E+00 +2.41591500E-01 -7.92400000E-01 +0.00000000E+00
 +2.20000000E-01 -7.73200000E-01 +0.00000000E+00 +2.00000000E-01 -7.76400000E-01 +0.00000000E+00
 +2.78507000E-01 -7.92400000E-01 +0.00000000E+00 +2.45600000E-01 -7.56400000E-01 +0.00000000E+00
 +3.15422500E-01 -7.92400000E-01 +0.00000000E+00 +3.18400000E-01 -7.61200000E-01 +0.00000000E+00
 +3.34400000E-01 -7.71600000E-01 +0.00000000E+00 +3.52338000E-01 -7.92400000E-01 +0.00000000E+00
 +3.12000000E-01 -7.39600000E-01 +0.00000000E+00 +2.69314370E-01 -7.16085571E-01 +0.00000000E+00
 +3.19200000E-01 -7.06800000E-01 +0.00000000E+00 +2.77600000E-01 -7.02000000E-01 +0.00000000E+00
 +3.44515784E-01 -6.44484225E-01 +0.00000000E+00 +3.03067053E-01 -6.42383945E-01 +0.00000000E+00
 +3.71200000E-01 -7.92400000E-01 +0.00000000E+00 +3.71200000E-01 -7.76400000E-01 +0.00000000E+00
 +3.89253500E-01 -6.04400000E-01 +0.00000000E+00 +4.26169000E-01 -6.04400000E-01 +0.00000000E+00
 +4.26169000E-01 -5.70000000E-01 +0.00000000E+00 +3.74400000E-01 -5.70000000E-01 +0.00000000E+00
 +3.60800000E-01 -6.04400000E-01 +0.00000000E+00 +3.52338000E-01 -5.73831000E-01 +0.00000000E+00
 +4.63084500E-01 -6.04400000E-01 +0.00000000E+00 +5.00000000E-01 -6.04400000E-01 +0.00000000E+00
 +5.00000000E-01 -5.70000000E-01 +0.00000000E+00 +4.63084500E-01 -5.70000000E-01 +0.00000000E+00
 +3.88286906E-01 -5.36514638E-01 +0.00000000E+00 +3.48772238E-01 -5.35392262E-01 +0.00000000E+00
 +4.01349688E-01 -5.05016479E-01 +0.00000000E+00 +3.62108312E-01 -5.04173725E-01 +0.00000000E+00
 +3.16403127E-01 -6.11165408E-01 +0.00000000E+00 +3.29739200E-01 -5.79946872E-01 +0.00000000E+00
 +5.79200000E-01 -7.92400000E-01 +0.00000000E+00 +6.10746500E-01 -7.92400000E-01 +0.00000000E+00
 +6.21600000E-01 -7.71600000E-01 +0.00000000E+00 +5.79200000E-01 -7.76400000E-01 +0.00000000E+00
 +6.47662000E-01 -7.92400000E-01 +0.00000000E+00 +6.33600000E-01 -7.62800000E-01 +0.00000000E+00
 +6.47662000E-01 -6.84577500E-01 +0.00000000E+00 +6.20800000E-01 -6.84400000E-01 +0.00000000E+00
 +6.39200000E-01 -7.44400000E-01 +0.00000000E+00 +6.47662000E-01 -6.47662000E-01 +0.00000000E+00
 +6.06176235E-01 -6.49581511E-01 +0.00000000E+00 +6.84577500E-01 -7.92400000E-01 +0.00000000E+00
 +6.84577500E-01 -7.58408500E-01 +0.00000000E+00 +7.21493000E-01 -7.92400000E-01 +0.00000000E+00
 +7.21493000E-01 -7.58408500E-01 +0.00000000E+00 +7.30913685E-01 -7.17313899E-01 +0.00000000E+00
 +6.84577500E-01 -7.21493000E-01 +0.00000000E+00 +7.58408500E-01 -7.92400000E-01 +0.00000000E+00
 +7.56000000E-01 -7.61200000E-01 +0.00000000E+00 +7.74400000E-01 -7.72400000E-01 +0.00000000E+00
 +8.00000000E-01 -7.76400000E-01 +0.00000000E+00 +6.84577500E-01 -6.84577500E-01 +0.00000000E+00
 +7.17230363E-01 -6.86468444E-01 +0.00000000E+00 +6.97476995E-01 -6.41939667E-01 +0.00000000E+00
 +6.83793673E-01 -6.11094213E-01 +0.00000000E+00 +6.47662000E-01 -6.10746500E-01 +0.00000000E+00
 +6.70110351E-01 -5.80248758E-01 +0.00000000E+00 +6.47662000E-01 -5.73831000E-01 +0.00000000E+00
 +6.50356984E-01 -5.35719981E-01 +0.00000000E+00 +5.36915500E-01 -6.04400000E-01 +0.00000000E+00
 +5.87200000E-01 -6.04400000E-01 +0.00000000E+00 +5.74400000E-01 -5.70000000E-01 +0.00000000E+00
 +5.36915500E-01 -5.70000000E-01 +0.00000000E+00 +6.10746500E-01 -6.10746500E-01 +0.00000000E+00
 +6.10746500E-01 -5.73831000E-01 +0.00000000E+00 +6.10746500E-01 -5.36915500E-01 +0.00000000E+00
 +5.62474709E-01 -5.41701094E-01 +0.00000000E+00 +6.36673662E-01 -5.04874526E-01 +0.00000000E+00
 +6.10746500E-01 -5.00000000E-01 +0.00000000E+00 +5.73831000E-01 -5.00000000E-01 +0.00000000E+00
 +5.43697340E-01 -4.97142101E-01 +0.00000000E+00 +5.73831000E-01 -4.63084500E-01 +0.00000000E+00
 +5.30486909E-01 -4.65793538E-01 +0.00000000E+00 +5.73831000E-01 -4.26169000E-01 +0.00000000E+00
 +5.36915500E-01 -4.26169000E-01 +0.00000000E+00 +5.11709541E-01 -4.21234545E-01 +0.00000000E+00
 +6.16920295E-01 -4.60345749E-01 +0.00000000E+00 +6.03236973E-01 -4.29500294E-01 +0.00000000E+00
 +5.83483605E-01 -3.84971517E-01 +0.00000000E+00 +5.36915500E-01 -3.89253500E-01 +0.00000000E+00
 +4.98499110E-01 -3.89885982E-01 +0.00000000E+00 +5.69800283E-01 -3.54126062E-01 +0.00000000E+00
 +5.36915500E-01 -3.52338000E-01 +0.00000000E+00 +5.00000000E-01 -3.52338000E-01 +0.00000000E+00
 +5.50046916E-01 -3.09597285E-01 +0.00000000E+00 +5.00000000E-01 -3.15422500E-01 +0.00000000E+00
 +5.36363594E-01 -2.78751830E-01 +0.00000000E+00 +5.00000000E-01 -2.78507000E-01 +0.00000000E+00
 +5.22680272E-01 -2.47906376E-01 +0.00000000E+00 +5.00000000E-01 -2.41591500E-01 +0.00000000E+00
 +5.04800000E-01 -2.07600000E-01 +0.00000000E+00 +3.81141349E-01 -4.59619115E-01 +0.00000000E+00
 +4.19829810E-01 -4.60455538E-01 +0.00000000E+00 +4.32892592E-01 -4.28957379E-01 +0.00000000E+00
 +3.94477423E-01 -4.28400579E-01 +0.00000000E+00 +4.51372714E-01 -3.84396438E-01 +0.00000000E+00
 +4.13510460E-01 -3.83845968E-01 +0.00000000E+00 +4.64435496E-01 -3.52898279E-01 +0.00000000E+00
 +4.26846534E-01 -3.52627432E-01 +0.00000000E+00 +4.73600000E-01 -3.30800000E-01 +0.00000000E+00
 +4.40182608E-01 -3.21408896E-01 +0.00000000E+00 +4.59215645E-01 -2.76854285E-01 +0.00000000E+00
 +4.72551719E-01 -2.45635749E-01 +0.00000000E+00 +4.88800000E-01 -2.07600000E-01 +0.00000000E+00

CELLS 79 369
4 0 1 2 3
4 1 4 5 2
4 4 6 7 5
3 6 8 7
3 6 9 8
4 5 7 10 11
4 11 10 12 13
3 12 14 15
3 13 12 15
4 9 16 17 8
4 18 19 20 21
4 22 18 21 23
4 24 25 26 27
4 19 24 27 20
4 23 21 28 29
4 29 28 30 31
4 15 14 22 32
4 32 22 23 33
3 23 29 33
4 34 35 36 37
3 38 36 35
3 38 39 36
3 40 41 42
4 41 40 43 44
4 38 45 46 39
4 45 47 48 46
4 46 48 49 50
4 39 46 50 42
4 47 51 52 48
3 51 53 52
3 51 54 53
3 48 52 49
4 42 50 55 40
4 50 49 56 55
3 55 56 57
4 40 55 57 43
4 43 57 58 59
4 59 58 60 61
3 61 60 62
4 63 64 65 66
4 25 63 66 26
3 67 64 44
4 44 43 59 67
4 67 59 61 68
4 64 67 68 65
4 65 68 69 70
4 68 61 62 69
4 69 62 71 72
4 70 69 72 73
3 73 74 70
4 74 73 75 76
4 76 75 77 78
3 78 79 76
4 73 72 80 75
3 72 71 80
4 75 80 81 77
3 77 81 82
4 79 78 83 84
4 78 77 82 83
4 83 82 85 86
4 84 83 86 87
4 87 86 88 89
3 86 85 88
4 89 88 90 91
4 91 90 92 93
3 93 92 94
3 31 30 95
3 30 96 95
4 95 96 97 98
3 97 99 100
3 87 101 84
4 100 99 101 102
3 98 97 100
4 102 101 103 104
4 101 87 89 103
4 103 89 91 105
3 104 103 105
4 105 91 93 106
4 106 93 94 107

CELL_TYPES 79
 9 9 9 5 5 9 9 5 5 9 9 9 9 9 9 9 9 9 5 9 5 5 5 9 9 9 9 9 9 5
 5 5 9 9 5 9 9 9 5 9 9 5 9 9 9 9 9 9 9 5 9 9 5 9 5 9 5 9 9 9
 9 9 5 9 9 5 5 5 9 5 5 9 5 9 9 9 5 9 9
CELL_DATA 79
SCALARS elemType int 1
LOOKUP_TABLE my_color
 1 1 1 0 0 1 1 0 0 1 1 1 1 1 1 1 1 1 0 1 0 0 0 1 1 1 1 1 1 0
 0 0 1 1 0 1 1 1 0 1 1 0 1 1 1 1 1 1 1 0 1 1 0 1 0 1 0 1 1 1
 1 1 0 1 1 0 0 0 1 0 0 1 0 1 1 1 0 1 1
LOOKUP_TABLE my_color 2
1.0 0.0 1.0 1.0
0.0 1.0 1.0 1.0

SCALARS surfState int 1
LOOKUP_TABLE default
 1 1 1 1 1 1 1 1 1 1 1 1 1 1 1 1 1 1 1 1 1 1 1 1 1 1 0 1 1 1
 1 1 1 1 1 0 1 1 1 1 1 1 0 0 1 1 0 1 0 1 1 0 1 0 1 1 1 1 0 1
 0 0 1 1 1 1 1 1 1 1 1 1 1 1 1 1 1 1 1
SCALARS refLevel int 1
LOOKUP_TABLE default
 4 4 4 4 4 4 4 4 4 4 4 4 4 4 4 4 4 4 4 4 4 4 4 4 4 4 4 4 4 4
 4 4 4 4 4 4 4 4 4 4 4 4 4 4 4 4 4 4 4 4 4 4 4 4 4 4 4 4 4 4
 4 4 4 4 4 4 4 4 4 4 4 4 4 4 4 4 4 4 4

SCALARS minAngle int 1
LOOKUP_TABLE min
 48 42 46 23 12 26 16 23 22 48 23 23 0 0 20 21 30 31 31 34 21 34 34 20 20 0 -2147483648 26 4 16
 30 17 34 18 19 -2147483648 17 24 32 20 0 30 -2147483648 -2147483648 26 17 -2147483648 22 -2147483648 21 19 -2147483648 27 -2147483648 27 20 22 21 -2147483648 18
 -2147483648 -2147483648 18 17 24 28 12 13 21 14 15 22 13 22 30 17 21 20 31

SCALARS maxAngle int 1
LOOKUP_TABLE max
 39 48 42 20 23 45 23 13 13 40 23 15 0 0 32 21 31 38 39 27 18 19 22 23 25 0 -90 43 9 22
 59 21 26 27 16 -90 24 39 41 20 0 38 -90 -90 35 28 -90 34 -90 20 28 -90 31 -90 31 30 23 33 -90 27
 -90 -90 16 24 39 37 8 8 22 8 26 22 7 22 52 30 22 31 23

SCALARS debugging int 1
LOOKUP_TABLE default
 0 0 0 0 0 0 0 0 0 0 0 0 0 0 0 0 0 0 0 0 0 0 0 0 0 0 0 0 0 0
 0 0 0 0 0 0 0 0 0 0 0 0 0 0 0 0 0 0 0 0 0 0 0 0 0 0 0 0 0 0
 0 0 0 0 0 0 0 0 0 0 0 0 0 0 0 0 0 0 0