# vtk DataFile Version 2.0
vtk file: 2D Unstructured Grid /mnt/c/Users/aiday/Documents/GitHub/MeshStep/outputs/a_output_3
ASCII

DATASET UNSTRUCTURED_GRID
POINTS 44 float
 +3.34400000E-01 -7.71600000E-01 +0.00000000E+00 +2.20000000E-01 -7.73200000E-01 +0.00000000E+00
 +2.00000000E-01 -7.76400000E-01 +0.00000000E+00 +2.45600000E-01 -7.56400000E-01 +0.00000000E+00
 +3.18400000E-01 -7.61200000E-01 +0.00000000E+00 +3.12000000E-01 -7.39600000E-01 +0.00000000E+00
 +3.19200000E-01 -7.06800000E-01 +0.00000000E+00 +2.77600000E-01 -7.02000000E-01 +0.00000000E+00
 +3.71200000E-01 -7.76400000E-01 +0.00000000E+00 +3.71200000E-01 -7.92400000E-01 +0.00000000E+00
 +4.26169000E-01 -6.04400000E-01 +0.00000000E+00 +3.74400000E-01 -5.70000000E-01 +0.00000000E+00
 +5.00000000E-01 -6.04400000E-01 +0.00000000E+00 +5.00000000E-01 -5.70000000E-01 +0.00000000E+00
 +3.60800000E-01 -6.04400000E-01 +0.00000000E+00 +4.06767028E-01 -4.91953697E-01 +0.00000000E+00
 +3.62108312E-01 -5.04173725E-01 +0.00000000E+00 +3.24042237E-01 -5.93282946E-01 +0.00000000E+00
 +5.79200000E-01 -7.76400000E-01 +0.00000000E+00 +6.21600000E-01 -7.71600000E-01 +0.00000000E+00
 +6.33600000E-01 -7.62800000E-01 +0.00000000E+00 +5.79200000E-01 -7.92400000E-01 +0.00000000E+00
 +7.56000000E-01 -7.61200000E-01 +0.00000000E+00 +7.40800000E-01 -7.39600000E-01 +0.00000000E+00
 +7.03547040E-01 -6.55622990E-01 +0.00000000E+00 +6.20800000E-01 -6.84400000E-01 +0.00000000E+00
 +6.64040306E-01 -5.66565436E-01 +0.00000000E+00 +6.00640793E-01 -6.36401887E-01 +0.00000000E+00
 +5.87200000E-01 -6.04400000E-01 +0.00000000E+00 +6.36673662E-01 -5.04874526E-01 +0.00000000E+00
 +5.74400000E-01 -5.70000000E-01 +0.00000000E+00 +5.38130403E-01 -4.83931670E-01 +0.00000000E+00
 +5.97166927E-01 -4.15816972E-01 +0.00000000E+00 +5.11709541E-01 -4.21234545E-01 +0.00000000E+00
 +5.69800283E-01 -3.54126062E-01 +0.00000000E+00 +4.73600000E-01 -3.30800000E-01 +0.00000000E+00
 +5.42433639E-01 -2.92435153E-01 +0.00000000E+00 +5.00000000E-01 -2.78507000E-01 +0.00000000E+00
 +5.04800000E-01 -2.07600000E-01 +0.00000000E+00 +4.32892592E-01 -4.28957379E-01 +0.00000000E+00
 +3.88780459E-01 -4.41736652E-01 +0.00000000E+00 +4.26846534E-01 -3.52627432E-01 +0.00000000E+00
 +4.53518682E-01 -2.90190359E-01 +0.00000000E+00 +4.88800000E-01 -2.07600000E-01 +0.00000000E+00

CELLS 30 132
3 0 1 2
3 0 3 1
3 3 4 5
3 3 0 4
4 3 5 6 7
4 4 8 9 5
3 6 10 11
4 10 12 13 11
3 14 15 16
4 7 6 14 17
3 17 14 16
3 18 19 20
3 18 21 19
3 22 20 19
3 22 23 20
4 20 23 24 25
3 25 24 26
4 12 27 28 13
3 25 26 28
4 28 26 29 30
3 13 28 31
3 30 32 33
3 30 29 32
4 33 32 34 35
4 35 34 36 37
3 37 36 38
4 16 15 39 40
3 40 39 41
4 41 35 37 42
4 42 37 38 43

CELL_TYPES 30
 5 5 5 5 9 9 5 9 5 9 5 5 5 5 5 9 5 9 5 9 5 5 5 9 9 5 9 5 9 9
CELL_DATA 30
SCALARS elemType int 1
LOOKUP_TABLE my_color
 0 0 0 0 1 1 0 1 0 1 0 0 0 0 0 1 0 1 0 1 0 0 0 1 1 0 1 0 1 1
LOOKUP_TABLE my_color 2
1.0 0.0 1.0 1.0
0.0 1.0 1.0 1.0

SCALARS surfState int 1
LOOKUP_TABLE default
 1 1 1 1 1 1 1 1 1 1 1 1 1 1 1 1 1 1 1 1 1 1 1 1 1 1 1 1 1 1
SCALARS refLevel int 1
LOOKUP_TABLE default
 3 3 3 3 3 3 3 3 3 3 3 3 3 3 3 3 3 3 3 3 3 3 3 3 3 3 3 3 3 3

SCALARS minAngle int 1
LOOKUP_TABLE min
 58 49 42 54 44 58 35 56 38 16 37 52 40 56 48 11 15 40 17 22 13 28 27 36 37 32 38 32 48 37

SCALARS maxAngle int 1
LOOKUP_TABLE max
 111 77 32 90 26 221 18 56 46 15 23 90 36 84 52 9 25 44 33 25 27 17 52 37 42 44 39 41 51 23

SCALARS debugging int 1
LOOKUP_TABLE default
 0 0 0 0 0 0 0 0 0 0 0 0 0 0 0 0 0 0 0 0 0 0 0 0 0 0 0 0 0 0