# vtk DataFile Version 2.0
vtk file: 2D Unstructured Grid /mnt/c/Users/aiday/Documents/GitHub/MeshStep/outputs/a_output_1_quads
ASCII

DATASET UNSTRUCTURED_GRID
POINTS 21 float
 -3.85972000E-01 -7.95324000E-01 +0.00000000E+00 +2.04676000E-01 -7.95324000E-01 +0.00000000E+00
 +7.95324000E-01 -7.95324000E-01 +0.00000000E+00 +1.38597200E+00 -7.95324000E-01 +0.00000000E+00
 -3.85972000E-01 -2.04676000E-01 +0.00000000E+00 +2.04676000E-01 -2.04676000E-01 +0.00000000E+00
 +7.95324000E-01 -2.04676000E-01 +0.00000000E+00 +1.38597200E+00 -2.04676000E-01 +0.00000000E+00
 -9.06480000E-02 -7.95324000E-01 +0.00000000E+00 +2.04676000E-01 -5.00000000E-01 +0.00000000E+00
 -9.06480000E-02 -2.04676000E-01 +0.00000000E+00 -3.85972000E-01 -5.00000000E-01 +0.00000000E+00
 -9.06480000E-02 -5.00000000E-01 +0.00000000E+00 +5.00000000E-01 -7.95324000E-01 +0.00000000E+00
 +7.95324000E-01 -5.00000000E-01 +0.00000000E+00 +5.00000000E-01 -2.04676000E-01 +0.00000000E+00
 +5.00000000E-01 -5.00000000E-01 +0.00000000E+00 +1.09064800E+00 -7.95324000E-01 +0.00000000E+00
 +1.38597200E+00 -5.00000000E-01 +0.00000000E+00 +1.09064800E+00 -2.04676000E-01 +0.00000000E+00
 +1.09064800E+00 -5.00000000E-01 +0.00000000E+00

CELLS 6 30
4 8 1 9 12
4 1 13 16 9
4 13 2 14 16
4 16 14 6 15
4 9 16 15 5
4 2 17 20 14

CELL_TYPES 6
 9 9 9 9 9 9
CELL_DATA 6
SCALARS elemType int 1
LOOKUP_TABLE my_color
 1 1 1 1 1 1
LOOKUP_TABLE my_color 2
1.0 0.0 1.0 1.0
0.0 1.0 1.0 1.0
