# vtk DataFile Version 2.0
vtk file: 2D Unstructured Grid /mnt/c/Users/aiday/Documents/GitHub/MeshStep/outputs/a_output_2_quads
ASCII

DATASET UNSTRUCTURED_GRID
POINTS 45 float
 -3.85972000E-01 -7.95324000E-01 +0.00000000E+00 +2.04676000E-01 -7.95324000E-01 +0.00000000E+00
 +7.95324000E-01 -7.95324000E-01 +0.00000000E+00 +1.38597200E+00 -7.95324000E-01 +0.00000000E+00
 -3.85972000E-01 -2.04676000E-01 +0.00000000E+00 +2.04676000E-01 -2.04676000E-01 +0.00000000E+00
 +7.95324000E-01 -2.04676000E-01 +0.00000000E+00 +1.38597200E+00 -2.04676000E-01 +0.00000000E+00
 -9.06480000E-02 -7.95324000E-01 +0.00000000E+00 +2.04676000E-01 -5.00000000E-01 +0.00000000E+00
 -9.06480000E-02 -2.04676000E-01 +0.00000000E+00 -3.85972000E-01 -5.00000000E-01 +0.00000000E+00
 -9.06480000E-02 -5.00000000E-01 +0.00000000E+00 +5.00000000E-01 -7.95324000E-01 +0.00000000E+00
 +7.95324000E-01 -5.00000000E-01 +0.00000000E+00 +5.00000000E-01 -2.04676000E-01 +0.00000000E+00
 +5.00000000E-01 -5.00000000E-01 +0.00000000E+00 +1.09064800E+00 -7.95324000E-01 +0.00000000E+00
 +1.38597200E+00 -5.00000000E-01 +0.00000000E+00 +1.09064800E+00 -2.04676000E-01 +0.00000000E+00
 +1.09064800E+00 -5.00000000E-01 +0.00000000E+00 +5.70140000E-02 -7.95324000E-01 +0.00000000E+00
 +2.04676000E-01 -6.47662000E-01 +0.00000000E+00 +5.70140000E-02 -5.00000000E-01 +0.00000000E+00
 -9.06480000E-02 -6.47662000E-01 +0.00000000E+00 +5.70140000E-02 -6.47662000E-01 +0.00000000E+00
 +3.52338000E-01 -7.95324000E-01 +0.00000000E+00 +5.00000000E-01 -6.47662000E-01 +0.00000000E+00
 +3.52338000E-01 -5.00000000E-01 +0.00000000E+00 +3.52338000E-01 -6.47662000E-01 +0.00000000E+00
 +6.47662000E-01 -7.95324000E-01 +0.00000000E+00 +7.95324000E-01 -6.47662000E-01 +0.00000000E+00
 +6.47662000E-01 -5.00000000E-01 +0.00000000E+00 +6.47662000E-01 -6.47662000E-01 +0.00000000E+00
 +7.95324000E-01 -3.52338000E-01 +0.00000000E+00 +6.47662000E-01 -2.04676000E-01 +0.00000000E+00
 +5.00000000E-01 -3.52338000E-01 +0.00000000E+00 +6.47662000E-01 -3.52338000E-01 +0.00000000E+00
 +3.52338000E-01 -2.04676000E-01 +0.00000000E+00 +2.04676000E-01 -3.52338000E-01 +0.00000000E+00
 +3.52338000E-01 -3.52338000E-01 +0.00000000E+00 +9.42986000E-01 -7.95324000E-01 +0.00000000E+00
 +1.09064800E+00 -6.47662000E-01 +0.00000000E+00 +9.42986000E-01 -5.00000000E-01 +0.00000000E+00
 +9.42986000E-01 -6.47662000E-01 +0.00000000E+00

CELLS 14 70
4 21 1 22 25
4 1 26 29 22
4 26 13 27 29
4 29 27 16 28
4 22 29 28 9
4 13 30 33 27
4 30 2 31 33
4 33 31 14 32
4 27 33 32 16
4 16 32 37 36
4 36 37 35 15
4 28 16 36 40
4 40 36 15 38
4 2 41 44 31

CELL_TYPES 14
 9 9 9 9 9 9 9 9 9 9 9 9 9 9
CELL_DATA 14
SCALARS elemType int 1
LOOKUP_TABLE my_color
 1 1 1 1 1 1 1 1 1 1 1 1 1 1
LOOKUP_TABLE my_color 2
1.0 0.0 1.0 1.0
0.0 1.0 1.0 1.0
