# vtk DataFile Version 2.0
vtk file: 2D Unstructured Grid /mnt/c/Users/aiday/Documents/GitHub/MeshStep/outputs/bar_output_1_grid
ASCII

DATASET UNSTRUCTURED_GRID
POINTS 12 float
 -1.04540000E+00 -1.00899000E+00 +0.00000000E+00 +9.72580000E-01 -1.00899000E+00 +0.00000000E+00
 +2.99056000E+00 -1.00899000E+00 +0.00000000E+00 +5.00854000E+00 -1.00899000E+00 +0.00000000E+00
 +7.02652000E+00 -1.00899000E+00 +0.00000000E+00 +9.04450000E+00 -1.00899000E+00 +0.00000000E+00
 -1.04540000E+00 +1.00899000E+00 +0.00000000E+00 +9.72580000E-01 +1.00899000E+00 +0.00000000E+00
 +2.99056000E+00 +1.00899000E+00 +0.00000000E+00 +5.00854000E+00 +1.00899000E+00 +0.00000000E+00
 +7.02652000E+00 +1.00899000E+00 +0.00000000E+00 +9.04450000E+00 +1.00899000E+00 +0.00000000E+00

CELLS 5 25
4 0 1 7 6
4 1 2 8 7
4 2 3 9 8
4 3 4 10 9
4 4 5 11 10

CELL_TYPES 5
 9 9 9 9 9
CELL_DATA 5
SCALARS elemType int 1
LOOKUP_TABLE my_color
 1 1 1 1 1
LOOKUP_TABLE my_color 2
1.0 0.0 1.0 1.0
0.0 1.0 1.0 1.0
