# vtk DataFile Version 2.0
vtk file: 2D Unstructured Grid /mnt/c/Users/aiday/Documents/GitHub/MeshStep/outputs/bar_output_1_quads
ASCII

DATASET UNSTRUCTURED_GRID
POINTS 33 float
 -1.04540000E+00 -1.00899000E+00 +0.00000000E+00 +9.72580000E-01 -1.00899000E+00 +0.00000000E+00
 +2.99056000E+00 -1.00899000E+00 +0.00000000E+00 +5.00854000E+00 -1.00899000E+00 +0.00000000E+00
 +7.02652000E+00 -1.00899000E+00 +0.00000000E+00 +9.04450000E+00 -1.00899000E+00 +0.00000000E+00
 -1.04540000E+00 +1.00899000E+00 +0.00000000E+00 +9.72580000E-01 +1.00899000E+00 +0.00000000E+00
 +2.99056000E+00 +1.00899000E+00 +0.00000000E+00 +5.00854000E+00 +1.00899000E+00 +0.00000000E+00
 +7.02652000E+00 +1.00899000E+00 +0.00000000E+00 +9.04450000E+00 +1.00899000E+00 +0.00000000E+00
 -3.64100000E-02 -1.00899000E+00 +0.00000000E+00 +9.72580000E-01 +0.00000000E+00 +0.00000000E+00
 -3.64100000E-02 +1.00899000E+00 +0.00000000E+00 -1.04540000E+00 +0.00000000E+00 +0.00000000E+00
 -3.64100000E-02 +0.00000000E+00 +0.00000000E+00 +1.98157000E+00 -1.00899000E+00 +0.00000000E+00
 +2.99056000E+00 +0.00000000E+00 +0.00000000E+00 +1.98157000E+00 +1.00899000E+00 +0.00000000E+00
 +1.98157000E+00 +0.00000000E+00 +0.00000000E+00 +3.99955000E+00 -1.00899000E+00 +0.00000000E+00
 +5.00854000E+00 +0.00000000E+00 +0.00000000E+00 +3.99955000E+00 +1.00899000E+00 +0.00000000E+00
 +3.99955000E+00 +0.00000000E+00 +0.00000000E+00 +6.01753000E+00 -1.00899000E+00 +0.00000000E+00
 +7.02652000E+00 +0.00000000E+00 +0.00000000E+00 +6.01753000E+00 +1.00899000E+00 +0.00000000E+00
 +6.01753000E+00 +0.00000000E+00 +0.00000000E+00 +8.03551000E+00 -1.00899000E+00 +0.00000000E+00
 +9.04450000E+00 +0.00000000E+00 +0.00000000E+00 +8.03551000E+00 +1.00899000E+00 +0.00000000E+00
 +8.03551000E+00 +0.00000000E+00 +0.00000000E+00

CELLS 16 80
4 12 1 13 16
4 16 13 7 14
4 1 17 20 13
4 17 2 18 20
4 20 18 8 19
4 13 20 19 7
4 2 21 24 18
4 21 3 22 24
4 24 22 9 23
4 18 24 23 8
4 3 25 28 22
4 25 4 26 28
4 28 26 10 27
4 22 28 27 9
4 4 29 32 26
4 26 32 31 10

CELL_TYPES 16
 9 9 9 9 9 9 9 9 9 9 9 9 9 9 9 9
CELL_DATA 16
SCALARS elemType int 1
LOOKUP_TABLE my_color
 1 1 1 1 1 1 1 1 1 1 1 1 1 1 1 1
LOOKUP_TABLE my_color 2
1.0 0.0 1.0 1.0
0.0 1.0 1.0 1.0
