# vtk DataFile Version 2.0
vtk file: 2D Unstructured Grid output2
ASCII

DATASET UNSTRUCTURED_GRID
POINTS 532 float
 +1.87003674E-01 -5.01074835E-02 +0.00000000E+00 +2.02247191E-01 -5.41919715E-02 +0.00000000E+00
 +2.03634663E-01 -3.26759044E-02 +0.00000000E+00 +1.87296711E-01 -3.26759044E-02 +0.00000000E+00
 +1.71760158E-01 -4.60229955E-02 +0.00000000E+00 +1.70958759E-01 -3.26759044E-02 +0.00000000E+00
 +2.19972615E-01 -4.90138566E-02 +0.00000000E+00 +2.21575196E-01 -5.93708949E-02 +0.00000000E+00
 +2.36818713E-01 -6.34553830E-02 +0.00000000E+00 +2.36310568E-01 -4.90138566E-02 +0.00000000E+00
 +2.36310568E-01 -3.26759044E-02 +0.00000000E+00 +2.19972615E-01 -3.26759044E-02 +0.00000000E+00
 +1.56516641E-01 -4.19385075E-02 +0.00000000E+00 +1.54620806E-01 -3.26759044E-02 +0.00000000E+00
 +1.37188636E-01 -3.67595842E-02 +0.00000000E+00 +1.06701602E-01 -2.85906079E-02 +0.00000000E+00
 +1.21945119E-01 -3.26750960E-02 +0.00000000E+00 +1.21944902E-01 -1.63379522E-02 +0.00000000E+00
 +1.05606950E-01 -1.63379522E-02 +0.00000000E+00 +1.38282854E-01 -1.63379522E-02 +0.00000000E+00
 +1.38282854E-01 +0.00000000E+00 +0.00000000E+00 +1.21944902E-01 +0.00000000E+00 +0.00000000E+00
 +1.05606950E-01 +0.00000000E+00 +0.00000000E+00 +8.92689976E-02 -1.63379522E-02 +0.00000000E+00
 +7.21300798E-02 -1.93271966E-02 +0.00000000E+00 +9.14580847E-02 -2.45061199E-02 +0.00000000E+00
 +8.92689976E-02 +0.00000000E+00 +0.00000000E+00 +7.29310454E-02 +0.00000000E+00 +0.00000000E+00
 +5.68865628E-02 -1.52427086E-02 +0.00000000E+00 +5.65930932E-02 +0.00000000E+00 +0.00000000E+00
 +4.16430459E-02 -1.11582205E-02 +0.00000000E+00 +4.02551410E-02 +0.00000000E+00 +0.00000000E+00
 +2.63995289E-02 -7.07373245E-03 +0.00000000E+00 +2.23150409E-02 +5.97929718E-03 +0.00000000E+00
 +0.00000000E+00 +0.00000000E+00 +0.00000000E+00 +3.99690090E-01 -9.80277133E-02 +0.00000000E+00
 +3.82179342E-01 -1.02404646E-01 +0.00000000E+00 +4.01507347E-01 -1.07583569E-01 +0.00000000E+00
 +4.16750864E-01 -1.11668057E-01 +0.00000000E+00 +4.31994381E-01 -1.15752546E-01 +0.00000000E+00
 +4.32365994E-01 -9.80277133E-02 +0.00000000E+00 +4.16028042E-01 -9.80277133E-02 +0.00000000E+00
 +4.65041899E-01 -1.14365666E-01 +0.00000000E+00 +4.47237898E-01 -1.19837033E-01 +0.00000000E+00
 +4.66565903E-01 -1.25015957E-01 +0.00000000E+00 +4.65041899E-01 -9.80277133E-02 +0.00000000E+00
 +4.48703946E-01 -9.80277133E-02 +0.00000000E+00 +4.81809420E-01 -1.29100445E-01 +0.00000000E+00
 +4.81379851E-01 -1.14365666E-01 +0.00000000E+00 +4.97052937E-01 -1.33184933E-01 +0.00000000E+00
 +4.97717803E-01 -1.14365666E-01 +0.00000000E+00 +4.97717803E-01 -9.80277133E-02 +0.00000000E+00
 +4.81379851E-01 -9.80277133E-02 +0.00000000E+00 +2.86633752E-01 -7.68032824E-02 +0.00000000E+00
 +3.01877269E-01 -8.08877705E-02 +0.00000000E+00 +3.01662376E-01 -6.53518089E-02 +0.00000000E+00
 +2.85324424E-01 -6.53518089E-02 +0.00000000E+00 +2.67305747E-01 -7.16243591E-02 +0.00000000E+00
 +3.36448791E-01 -9.01511819E-02 +0.00000000E+00 +3.51692308E-01 -9.42356699E-02 +0.00000000E+00
 +3.50676233E-01 -8.16897611E-02 +0.00000000E+00 +3.34338281E-01 -8.16897611E-02 +0.00000000E+00
 +3.66935825E-01 -9.83201580E-02 +0.00000000E+00 +3.67014185E-01 -8.16897611E-02 +0.00000000E+00
 +3.67014185E-01 -6.53518089E-02 +0.00000000E+00 +3.50676233E-01 -6.53518089E-02 +0.00000000E+00
 +3.34338281E-01 -6.53518089E-02 +0.00000000E+00 +3.17120786E-01 -8.49722585E-02 +0.00000000E+00
 +3.18000329E-01 -6.53518089E-02 +0.00000000E+00 +2.52062230E-01 -6.75398710E-02 +0.00000000E+00
 +2.52648520E-01 -4.90138566E-02 +0.00000000E+00 +2.68986472E-01 -4.90138566E-02 +0.00000000E+00
 +2.68986472E-01 -3.26759044E-02 +0.00000000E+00 +2.52648520E-01 -3.26759044E-02 +0.00000000E+00
 +2.36310568E-01 +3.26759044E-02 +0.00000000E+00 +2.52648520E-01 +3.26759044E-02 +0.00000000E+00
 +2.52648520E-01 +4.90138566E-02 +0.00000000E+00 +2.36310568E-01 +4.90138566E-02 +0.00000000E+00
 +2.68986472E-01 +3.26759044E-02 +0.00000000E+00 +2.68986472E-01 +4.90138566E-02 +0.00000000E+00
 +2.67305747E-01 +7.16243591E-02 +0.00000000E+00 +2.52062230E-01 +6.75398710E-02 +0.00000000E+00
 +2.36818713E-01 +6.34553830E-02 +0.00000000E+00 +3.01662376E-01 +6.53518089E-02 +0.00000000E+00
 +3.18000329E-01 +6.53518089E-02 +0.00000000E+00 +3.17120786E-01 +8.49722585E-02 +0.00000000E+00
 +3.01877269E-01 +8.08877704E-02 +0.00000000E+00 +3.34338281E-01 +6.53518089E-02 +0.00000000E+00
 +3.34338281E-01 +8.16897611E-02 +0.00000000E+00 +3.36448791E-01 +9.01511819E-02 +0.00000000E+00
 +3.50676233E-01 +6.53518089E-02 +0.00000000E+00 +3.50676233E-01 +8.16897611E-02 +0.00000000E+00
 +3.67014185E-01 +6.53518089E-02 +0.00000000E+00 +3.67014185E-01 +8.16897611E-02 +0.00000000E+00
 +3.66935825E-01 +9.83201579E-02 +0.00000000E+00 +3.51692308E-01 +9.42356698E-02 +0.00000000E+00
 +2.85324424E-01 +6.53518089E-02 +0.00000000E+00 +2.86633752E-01 +7.68032824E-02 +0.00000000E+00
 +4.65041899E-01 +9.80277133E-02 +0.00000000E+00 +4.81379851E-01 +9.80277133E-02 +0.00000000E+00
 +4.81379851E-01 +1.14365666E-01 +0.00000000E+00 +4.65041899E-01 +1.14365666E-01 +0.00000000E+00
 +4.97717803E-01 +9.80277133E-02 +0.00000000E+00 +4.97717803E-01 +1.14365666E-01 +0.00000000E+00
 +4.97052937E-01 +1.33184933E-01 +0.00000000E+00 +4.81809420E-01 +1.29100445E-01 +0.00000000E+00
 +4.66565903E-01 +1.25015956E-01 +0.00000000E+00 +4.32365994E-01 +9.80277133E-02 +0.00000000E+00
 +4.48703946E-01 +9.80277133E-02 +0.00000000E+00 +4.47237898E-01 +1.19837033E-01 +0.00000000E+00
 +4.31994381E-01 +1.15752545E-01 +0.00000000E+00 +3.99690090E-01 +9.80277133E-02 +0.00000000E+00
 +4.16028042E-01 +9.80277133E-02 +0.00000000E+00 +4.16750864E-01 +1.11668057E-01 +0.00000000E+00
 +4.01507347E-01 +1.07583569E-01 +0.00000000E+00 +3.82179342E-01 +1.02404646E-01 +0.00000000E+00
 +4.16430459E-02 +1.11582205E-02 +0.00000000E+00 +5.68865628E-02 +1.52427085E-02 +0.00000000E+00
 +7.21300798E-02 +1.93271966E-02 +0.00000000E+00 +8.92689976E-02 +1.63379522E-02 +0.00000000E+00
 +1.05606950E-01 +1.63379522E-02 +0.00000000E+00 +1.06701602E-01 +2.85906079E-02 +0.00000000E+00
 +9.14580848E-02 +2.45061199E-02 +0.00000000E+00 +1.21944902E-01 +1.63379522E-02 +0.00000000E+00
 +1.38282854E-01 +1.63379522E-02 +0.00000000E+00 +1.37188636E-01 +3.67595841E-02 +0.00000000E+00
 +1.21945119E-01 +3.26750960E-02 +0.00000000E+00 +1.54620806E-01 +3.26759044E-02 +0.00000000E+00
 +1.56516641E-01 +4.19385074E-02 +0.00000000E+00 +1.70958759E-01 +3.26759044E-02 +0.00000000E+00
 +1.71760158E-01 +4.60229955E-02 +0.00000000E+00 +2.03634663E-01 +3.26759044E-02 +0.00000000E+00
 +2.19972615E-01 +3.26759044E-02 +0.00000000E+00 +2.19972615E-01 +4.90138566E-02 +0.00000000E+00
 +2.02247191E-01 +5.41919716E-02 +0.00000000E+00 +2.21575196E-01 +5.93708949E-02 +0.00000000E+00
 +1.87296711E-01 +3.26759044E-02 +0.00000000E+00 +1.87003674E-01 +5.01074835E-02 +0.00000000E+00
 +5.96683014E-01 -1.59880732E-01 +0.00000000E+00 +6.11926531E-01 -1.63965220E-01 +0.00000000E+00
 +6.12083469E-01 -1.47041570E-01 +0.00000000E+00 +5.95745516E-01 -1.47041570E-01 +0.00000000E+00
 +6.27170048E-01 -1.68049708E-01 +0.00000000E+00 +6.28421421E-01 -1.47041570E-01 +0.00000000E+00
 +6.28421421E-01 -1.30703618E-01 +0.00000000E+00 +6.12083469E-01 -1.30703618E-01 +0.00000000E+00
 +5.95745516E-01 -1.30703618E-01 +0.00000000E+00 +5.79407564E-01 -1.47041570E-01 +0.00000000E+00
 +5.62111492E-01 -1.50617321E-01 +0.00000000E+00 +5.81439497E-01 -1.55796243E-01 +0.00000000E+00
 +5.79407564E-01 -1.30703618E-01 +0.00000000E+00 +5.63069612E-01 -1.30703618E-01 +0.00000000E+00
 +5.46867975E-01 -1.46532833E-01 +0.00000000E+00 +5.46731660E-01 -1.30703618E-01 +0.00000000E+00
 +5.31624459E-01 -1.42448344E-01 +0.00000000E+00 +5.30393707E-01 -1.30703618E-01 +0.00000000E+00
 +5.12296454E-01 -1.37269421E-01 +0.00000000E+00 +7.59125038E-01 -1.96055427E-01 +0.00000000E+00
 +7.42043643E-01 -1.98829995E-01 +0.00000000E+00 +7.61371648E-01 -2.04008918E-01 +0.00000000E+00
 +7.10111182E-01 -1.79717474E-01 +0.00000000E+00 +6.92228604E-01 -1.85482096E-01 +0.00000000E+00
 +7.11556609E-01 -1.90661019E-01 +0.00000000E+00 +7.26800126E-01 -1.94745507E-01 +0.00000000E+00
 +7.26449134E-01 -1.79717474E-01 +0.00000000E+00 +7.26449134E-01 -1.63379522E-01 +0.00000000E+00
 +7.10111182E-01 -1.63379522E-01 +0.00000000E+00 +6.93773230E-01 -1.63379522E-01 +0.00000000E+00
 +7.42787086E-01 -1.79717474E-01 +0.00000000E+00 +7.59125038E-01 -1.79717474E-01 +0.00000000E+00
 +7.59125038E-01 -1.63379522E-01 +0.00000000E+00 +7.42787086E-01 -1.63379522E-01 +0.00000000E+00
 +6.46498053E-01 -1.73228632E-01 +0.00000000E+00 +6.61741570E-01 -1.77313120E-01 +0.00000000E+00
 +6.61097325E-01 -1.63379522E-01 +0.00000000E+00 +6.44759373E-01 -1.63379522E-01 +0.00000000E+00
 +6.76985087E-01 -1.81397608E-01 +0.00000000E+00 +6.77435277E-01 -1.63379522E-01 +0.00000000E+00
 +6.61097325E-01 -9.80277133E-02 +0.00000000E+00 +6.77435277E-01 -9.80277133E-02 +0.00000000E+00
 +6.77435277E-01 -8.16897611E-02 +0.00000000E+00 +6.63876494E-01 -7.69401941E-02 +0.00000000E+00
 +6.93773230E-01 -9.80277133E-02 +0.00000000E+00 +6.93773230E-01 -8.16897611E-02 +0.00000000E+00
 +6.93773230E-01 -6.53518089E-02 +0.00000000E+00 +6.81053975E-01 -5.85683632E-02 +0.00000000E+00
 +6.44759373E-01 -9.80277133E-02 +0.00000000E+00 +6.44136129E-01 -8.97329488E-02 +0.00000000E+00
 +6.24485878E-01 -9.69558754E-02 +0.00000000E+00 +7.10111182E-01 -6.53518089E-02 +0.00000000E+00
 +7.10111182E-01 -4.90138566E-02 +0.00000000E+00 +6.87790113E-01 -4.58459700E-02 +0.00000000E+00
 +7.26449134E-01 -6.53518089E-02 +0.00000000E+00 +7.26449134E-01 -4.90138566E-02 +0.00000000E+00
 +7.26449134E-01 -3.26759044E-02 +0.00000000E+00 +7.10111182E-01 -3.26759044E-02 +0.00000000E+00
 +6.93999941E-01 -3.41176070E-02 +0.00000000E+00 +7.10111182E-01 -1.63379522E-02 +0.00000000E+00
 +6.99424715E-01 -1.07110280E-02 +0.00000000E+00 +7.26449134E-01 -1.63379522E-02 +0.00000000E+00
 +7.26449134E-01 +0.00000000E+00 +0.00000000E+00 +7.10111182E-01 +0.00000000E+00 +0.00000000E+00
[...]
CELL_DATA 598
SCALARS elemType int 1
LOOKUP_TABLE my_color
 1 1 0 1 1 1 1 0 1 1 1 1 0 1 1 1 1 1 1 0 0 1 1 0 1 1 1 1 1 1
 1 0 1 1 1 1 0 1 1 1 1 1 1 1 1 1 1 1 1 0 1 1 1 1 0 1 1 1 1 1
 1 1 0 1 1 0 0 1 1 1 1 1 0 1 1 1 1 0 1 1 1 1 0 1 1 1 1 1 1 0
 1 1 1 1 1 0 0 0 1 1 1 1 1 1 1 1 0 1 1 1 1 1 0 0 1 1 1 1 1 1
 1 1 1 0 1 0 1 1 0 1 1 1 1 1 1 1 1 1 1 1 0 0 1 1 1 1 0 1 1 1
 1 1 1 0 1 1 1 1 1 0 1 1 1 1 1 1 1 1 1 1 1 0 1 0 1 1 0 1 0 1
 1 0 1 1 0 1 1 0 1 0 1 1 0 1 0 1 1 1 1 1 1 1 1 1 1 1 0 1 1 1
 1 1 0 1 1 1 1 1 1 0 1 1 1 1 0 0 0 1 1 1 1 1 1 1 1 1 1 1 1 1
 0 0 1 0 1 1 1 1 1 1 1 1 1 0 0 1 1 1 1 1 0 1 1 1 1 1 1 1 1 0
 0 0 1 1 1 1 1 0 1 1 1 1 0 0 0 1 0 0 0 1 0 0 0 0 0 0 0 0 0 0
 0 0 0 0 0 0 0 0 0 0 0 0 0 0 0 0 0 0 1 0 0 0 0 0 0 1 0 0 0 0
 0 0 0 0 0 0 0 0 0 0 0 0 0 0 0 0 0 0 0 0 0 0 0 0 0 0 0 0 0 0
 0 0 0 0 0 0 0 0 0 0 0 0 0 0 0 0 0 0 0 0 0 0 0 1 0 0 0 1 0 0
 0 0 0 0 0 0 0 0 0 0 0 0 1 0 0 0 0 0 0 0 0 0 0 0 1 0 0 0 0 0
 0 0 0 0 0 0 0 0 0 1 0 0 0 1 0 0 0 0 0 0 0 0 0 0 0 0 0 0 0 0
 0 0 0 0 0 0 0 0 0 0 0 0 0 0 0 0 0 1 1 1 1 1 0 0 0 1 0 0 0 0
 1 0 0 0 0 0 0 1 0 0 0 0 0 0 1 1 1 1 0 0 0 0 0 0 1 0 0 0 0 0
 0 1 1 1 1 0 0 0 0 0 0 0 1 1 1 0 0 0 0 0 0 0 1 1 1 0 0 0 0 0
 0 1 1 1 0 0 0 0 1 1 0 0 0 0 1 1 1 0 0 0 0 0 0 1 1 1 0 0 0 0
 0 0 0 1 1 1 0 0 0 0 0 0 0 1 1 1 1 1 0 0 0 1 1 0 0 0 1 1
LOOKUP_TABLE my_color 2
1.0 0.0 1.0 1.0
0.0 1.0 1.0 1.0
