# vtk DataFile Version 2.0
vtk file: 2D Unstructured Grid output3
ASCII

DATASET UNSTRUCTURED_GRID
POINTS 628 float
 +0.00000000E+00 +0.00000000E+00 +0.00000000E+00 +7.96875000E-02 +0.00000000E+00 +0.00000000E+00
 +7.96875000E-02 +7.96875000E-02 +0.00000000E+00 +0.00000000E+00 +7.96875000E-02 +0.00000000E+00
 +1.74375000E-01 +0.00000000E+00 +0.00000000E+00 +1.74375000E-01 +7.96875000E-02 +0.00000000E+00
 +1.74375000E-01 +1.74375000E-01 +0.00000000E+00 +7.96875000E-02 +1.74375000E-01 +0.00000000E+00
 +0.00000000E+00 +1.74375000E-01 +0.00000000E+00 +2.69062500E-01 +0.00000000E+00 +0.00000000E+00
 +2.69062500E-01 +7.96875000E-02 +0.00000000E+00 +3.63750000E-01 +0.00000000E+00 +0.00000000E+00
 +3.63750000E-01 +7.96875000E-02 +0.00000000E+00 +3.63750000E-01 +1.74375000E-01 +0.00000000E+00
 +2.69062500E-01 +1.74375000E-01 +0.00000000E+00 +7.96875000E-02 +2.69062500E-01 +0.00000000E+00
 +0.00000000E+00 +2.69062500E-01 +0.00000000E+00 +1.74375000E-01 +2.69062500E-01 +0.00000000E+00
 +1.74375000E-01 +3.63750000E-01 +0.00000000E+00 +7.96875000E-02 +3.63750000E-01 +0.00000000E+00
 +0.00000000E+00 +3.63750000E-01 +0.00000000E+00 +4.58437500E-01 +0.00000000E+00 +0.00000000E+00
 +4.58437500E-01 +7.96875000E-02 +0.00000000E+00 +5.53125000E-01 +0.00000000E+00 +0.00000000E+00
 +5.53125000E-01 +7.96875000E-02 +0.00000000E+00 +5.53125000E-01 +1.74375000E-01 +0.00000000E+00
 +4.58437500E-01 +1.74375000E-01 +0.00000000E+00 +6.47812500E-01 +0.00000000E+00 +0.00000000E+00
 +6.47812500E-01 +7.96875000E-02 +0.00000000E+00 +7.42500000E-01 +0.00000000E+00 +0.00000000E+00
 +7.42500000E-01 +7.96875000E-02 +0.00000000E+00 +7.42500000E-01 +1.74375000E-01 +0.00000000E+00
 +6.47812500E-01 +1.74375000E-01 +0.00000000E+00 +3.63750000E-01 +3.63750000E-01 +0.00000000E+00
 +4.58437500E-01 +3.63750000E-01 +0.00000000E+00 +5.00000000E-01 +5.00000000E-01 +0.00000000E+00
 +3.63750000E-01 +4.58437500E-01 +0.00000000E+00 +5.53125000E-01 +3.63750000E-01 +0.00000000E+00
 +5.53125000E-01 +4.58437500E-01 +0.00000000E+00 +5.00000000E-01 +5.53125000E-01 +0.00000000E+00
 +4.58437500E-01 +5.53125000E-01 +0.00000000E+00 +3.63750000E-01 +5.53125000E-01 +0.00000000E+00
 +6.47812500E-01 +3.63750000E-01 +0.00000000E+00 +6.47812500E-01 +4.58437500E-01 +0.00000000E+00
 +7.42500000E-01 +3.63750000E-01 +0.00000000E+00 +7.42500000E-01 +4.58437500E-01 +0.00000000E+00
 +7.42500000E-01 +5.00000000E-01 +0.00000000E+00 +6.47812500E-01 +5.00000000E-01 +0.00000000E+00
 +4.58437500E-01 +6.47812500E-01 +0.00000000E+00 +3.63750000E-01 +6.47812500E-01 +0.00000000E+00
 +5.00000000E-01 +6.47812500E-01 +0.00000000E+00 +5.00000000E-01 +7.42500000E-01 +0.00000000E+00
 +4.58437500E-01 +7.42500000E-01 +0.00000000E+00 +3.63750000E-01 +7.42500000E-01 +0.00000000E+00
 +7.96875000E-02 +4.58437500E-01 +0.00000000E+00 +0.00000000E+00 +4.58437500E-01 +0.00000000E+00
 +1.74375000E-01 +4.58437500E-01 +0.00000000E+00 +1.74375000E-01 +5.53125000E-01 +0.00000000E+00
 +7.96875000E-02 +5.53125000E-01 +0.00000000E+00 +0.00000000E+00 +5.53125000E-01 +0.00000000E+00
 +7.96875000E-02 +6.47812500E-01 +0.00000000E+00 +0.00000000E+00 +6.47812500E-01 +0.00000000E+00
 +1.74375000E-01 +6.47812500E-01 +0.00000000E+00 +1.74375000E-01 +7.42500000E-01 +0.00000000E+00
 +7.96875000E-02 +7.42500000E-01 +0.00000000E+00 +0.00000000E+00 +7.42500000E-01 +0.00000000E+00
 +8.37187500E-01 +0.00000000E+00 +0.00000000E+00 +8.37187500E-01 +7.96875000E-02 +0.00000000E+00
 +9.31875000E-01 +0.00000000E+00 +0.00000000E+00 +9.31875000E-01 +7.96875000E-02 +0.00000000E+00
 +9.31875000E-01 +1.74375000E-01 +0.00000000E+00 +8.37187500E-01 +1.74375000E-01 +0.00000000E+00
 +1.02656250E+00 +0.00000000E+00 +0.00000000E+00 +1.02656250E+00 +7.96875000E-02 +0.00000000E+00
 +1.12125000E+00 +0.00000000E+00 +0.00000000E+00 +1.12125000E+00 +7.96875000E-02 +0.00000000E+00
 +1.12125000E+00 +1.74375000E-01 +0.00000000E+00 +1.02656250E+00 +1.74375000E-01 +0.00000000E+00
 +1.21593750E+00 +0.00000000E+00 +0.00000000E+00 +1.21593750E+00 +7.96875000E-02 +0.00000000E+00
 +1.31062500E+00 +0.00000000E+00 +0.00000000E+00 +1.31062500E+00 +7.96875000E-02 +0.00000000E+00
 +1.31062500E+00 +1.74375000E-01 +0.00000000E+00 +1.21593750E+00 +1.74375000E-01 +0.00000000E+00
 +1.40531250E+00 +0.00000000E+00 +0.00000000E+00 +1.40531250E+00 +7.96875000E-02 +0.00000000E+00
 +1.50000000E+00 +0.00000000E+00 +0.00000000E+00 +1.50000000E+00 +7.96875000E-02 +0.00000000E+00
 +1.50000000E+00 +1.74375000E-01 +0.00000000E+00 +1.40531250E+00 +1.74375000E-01 +0.00000000E+00
 +1.12125000E+00 +3.63750000E-01 +0.00000000E+00 +1.21593750E+00 +3.63750000E-01 +0.00000000E+00
 +1.21593750E+00 +4.58437500E-01 +0.00000000E+00 +1.12125000E+00 +4.58437500E-01 +0.00000000E+00
 +1.31062500E+00 +3.63750000E-01 +0.00000000E+00 +1.31062500E+00 +4.58437500E-01 +0.00000000E+00
 +1.31062500E+00 +5.00000000E-01 +0.00000000E+00 +1.21593750E+00 +5.00000000E-01 +0.00000000E+00
 +1.12125000E+00 +5.00000000E-01 +0.00000000E+00 +1.40531250E+00 +3.63750000E-01 +0.00000000E+00
 +1.40531250E+00 +4.58437500E-01 +0.00000000E+00 +1.50000000E+00 +3.63750000E-01 +0.00000000E+00
 +1.50000000E+00 +4.58437500E-01 +0.00000000E+00 +1.50000000E+00 +5.00000000E-01 +0.00000000E+00
 +1.40531250E+00 +5.00000000E-01 +0.00000000E+00 +8.37187500E-01 +3.63750000E-01 +0.00000000E+00
 +8.37187500E-01 +4.58437500E-01 +0.00000000E+00 +9.31875000E-01 +3.63750000E-01 +0.00000000E+00
 +9.31875000E-01 +4.58437500E-01 +0.00000000E+00 +9.31875000E-01 +5.00000000E-01 +0.00000000E+00
 +8.37187500E-01 +5.00000000E-01 +0.00000000E+00 +1.02656250E+00 +3.63750000E-01 +0.00000000E+00
 +1.02656250E+00 +4.58437500E-01 +0.00000000E+00 +1.02656250E+00 +5.00000000E-01 +0.00000000E+00
 +1.00000000E+00 +1.00000000E+00 +0.00000000E+00 +1.11709375E+00 +1.03903125E+00 +0.00000000E+00
 +1.12125000E+00 +1.12125000E+00 +0.00000000E+00 +1.03903125E+00 +1.11709375E+00 +0.00000000E+00
 +1.21593750E+00 +1.12125000E+00 +0.00000000E+00 +1.20231250E+00 +1.06743750E+00 +0.00000000E+00
 +1.31593750E+00 +1.10531250E+00 +0.00000000E+00 +1.40115625E+00 +1.13371875E+00 +0.00000000E+00
 +1.40531250E+00 +1.21593750E+00 +0.00000000E+00 +1.31062500E+00 +1.21593750E+00 +0.00000000E+00
 +1.48637500E+00 +1.16212500E+00 +0.00000000E+00 +1.50000000E+00 +1.21593750E+00 +0.00000000E+00
 +1.50000000E+00 +1.31062500E+00 +0.00000000E+00 +1.40531250E+00 +1.31062500E+00 +0.00000000E+00
 +1.31062500E+00 +1.31062500E+00 +0.00000000E+00 +1.10531250E+00 +1.31593750E+00 +0.00000000E+00
 +1.21593750E+00 +1.31062500E+00 +0.00000000E+00 +1.21593750E+00 +1.40531250E+00 +0.00000000E+00
 +1.13371875E+00 +1.40115625E+00 +0.00000000E+00 +1.31062500E+00 +1.40531250E+00 +0.00000000E+00
 +1.31062500E+00 +1.50000000E+00 +0.00000000E+00 +1.21593750E+00 +1.50000000E+00 +0.00000000E+00
 +1.16212500E+00 +1.48637500E+00 +0.00000000E+00 +1.12125000E+00 +1.21593750E+00 +0.00000000E+00
 +1.06743750E+00 +1.20231250E+00 +0.00000000E+00 +7.96875000E-02 +8.37187500E-01 +0.00000000E+00
 +0.00000000E+00 +8.37187500E-01 +0.00000000E+00 +1.74375000E-01 +8.37187500E-01 +0.00000000E+00
 +1.74375000E-01 +9.31875000E-01 +0.00000000E+00 +7.96875000E-02 +9.31875000E-01 +0.00000000E+00
 +0.00000000E+00 +9.31875000E-01 +0.00000000E+00 +7.96875000E-02 +1.02656250E+00 +0.00000000E+00
 +0.00000000E+00 +1.02656250E+00 +0.00000000E+00 +1.74375000E-01 +1.02656250E+00 +0.00000000E+00
 +1.74375000E-01 +1.12125000E+00 +0.00000000E+00 +7.96875000E-02 +1.12125000E+00 +0.00000000E+00
 +0.00000000E+00 +1.12125000E+00 +0.00000000E+00 +4.58437500E-01 +8.37187500E-01 +0.00000000E+00
 +3.63750000E-01 +8.37187500E-01 +0.00000000E+00 +5.00000000E-01 +8.37187500E-01 +0.00000000E+00
 +5.00000000E-01 +9.31875000E-01 +0.00000000E+00 +4.58437500E-01 +9.31875000E-01 +0.00000000E+00
 +3.63750000E-01 +9.31875000E-01 +0.00000000E+00 +4.58437500E-01 +1.02656250E+00 +0.00000000E+00
 +3.63750000E-01 +1.02656250E+00 +0.00000000E+00 +5.00000000E-01 +1.02656250E+00 +0.00000000E+00
 +5.00000000E-01 +1.12125000E+00 +0.00000000E+00 +4.58437500E-01 +1.12125000E+00 +0.00000000E+00
 +3.63750000E-01 +1.12125000E+00 +0.00000000E+00 +4.58437500E-01 +1.21593750E+00 +0.00000000E+00
 +3.63750000E-01 +1.21593750E+00 +0.00000000E+00 +5.00000000E-01 +1.21593750E+00 +0.00000000E+00
 +5.00000000E-01 +1.31062500E+00 +0.00000000E+00 +4.58437500E-01 +1.31062500E+00 +0.00000000E+00
 +3.63750000E-01 +1.31062500E+00 +0.00000000E+00 +4.58437500E-01 +1.40531250E+00 +0.00000000E+00
 +3.63750000E-01 +1.40531250E+00 +0.00000000E+00 +5.00000000E-01 +1.40531250E+00 +0.00000000E+00
 +5.00000000E-01 +1.50000000E+00 +0.00000000E+00 +4.58437500E-01 +1.50000000E+00 +0.00000000E+00
 +3.63750000E-01 +1.50000000E+00 +0.00000000E+00 +7.96875000E-02 +1.21593750E+00 +0.00000000E+00
 +0.00000000E+00 +1.21593750E+00 +0.00000000E+00 +1.74375000E-01 +1.21593750E+00 +0.00000000E+00
 +1.74375000E-01 +1.31062500E+00 +0.00000000E+00 +7.96875000E-02 +1.31062500E+00 +0.00000000E+00
 +0.00000000E+00 +1.31062500E+00 +0.00000000E+00 +7.96875000E-02 +1.40531250E+00 +0.00000000E+00
 +0.00000000E+00 +1.40531250E+00 +0.00000000E+00 +1.74375000E-01 +1.40531250E+00 +0.00000000E+00
 +1.74375000E-01 +1.50000000E+00 +0.00000000E+00 +7.96875000E-02 +1.50000000E+00 +0.00000000E+00
 +0.00000000E+00 +1.50000000E+00 +0.00000000E+00 +1.59468750E+00 +0.00000000E+00 +0.00000000E+00
 +1.59468750E+00 +7.96875000E-02 +0.00000000E+00 +1.68937500E+00 +0.00000000E+00 +0.00000000E+00
 +1.68937500E+00 +7.96875000E-02 +0.00000000E+00 +1.68937500E+00 +1.74375000E-01 +0.00000000E+00
 +1.59468750E+00 +1.74375000E-01 +0.00000000E+00 +1.78406250E+00 +0.00000000E+00 +0.00000000E+00
 +1.78406250E+00 +7.96875000E-02 +0.00000000E+00 +1.87875000E+00 +0.00000000E+00 +0.00000000E+00
 +1.87875000E+00 +7.96875000E-02 +0.00000000E+00 +1.87875000E+00 +1.74375000E-01 +0.00000000E+00
 +1.78406250E+00 +1.74375000E-01 +0.00000000E+00 +1.97343750E+00 +0.00000000E+00 +0.00000000E+00
 +1.97343750E+00 +7.96875000E-02 +0.00000000E+00 +2.06812500E+00 +0.00000000E+00 +0.00000000E+00
[...]
CELL_DATA 567
SCALARS elemType int 1
LOOKUP_TABLE my_color
 1 1 1 1 1 1 1 1 1 1 1 1 1 1 1 1 1 1 1 1 1 1 1 1 1 1 1 1 1 1
 1 1 1 1 1 1 1 1 1 1 1 1 1 1 1 1 1 1 1 1 1 1 1 1 1 1 1 1 1 1
 1 1 1 1 1 1 1 1 1 1 1 1 1 0 1 1 1 1 1 1 1 1 1 1 0 1 1 1 1 1
 1 1 1 1 1 1 1 1 1 1 1 1 1 1 1 1 1 1 1 1 1 1 1 1 1 1 1 1 1 1
 1 1 1 1 1 1 1 1 1 1 1 1 1 1 1 1 1 1 1 1 1 1 1 1 1 1 1 1 1 1
 1 1 1 1 1 1 1 1 1 1 1 1 1 1 1 1 1 1 1 1 1 1 1 1 1 1 1 1 1 1
 1 1 1 1 1 1 1 1 1 1 1 1 1 1 1 1 1 1 1 1 1 1 1 1 1 1 1 1 1 1
 1 1 1 1 1 1 1 1 1 1 0 0 1 0 1 1 1 1 1 1 0 1 1 0 1 1 1 1 1 1
 1 1 1 1 1 1 1 1 1 1 1 1 1 1 1 1 1 1 1 1 1 1 1 1 1 1 1 1 1 1
 1 1 1 1 1 1 1 1 1 1 1 1 1 1 1 1 1 1 1 1 1 1 1 1 1 1 1 1 1 1
 1 1 1 1 1 1 1 1 1 1 1 1 1 1 0 1 1 1 0 1 1 1 1 0 1 1 1 1 1 1
 1 1 1 1 1 0 1 0 1 1 1 1 1 1 1 1 1 1 1 1 1 1 1 1 1 1 1 1 1 1
 1 1 1 1 1 1 1 1 1 1 1 1 1 1 1 1 1 0 0 1 1 1 1 1 1 1 1 1 1 1
 1 1 1 1 1 1 1 1 1 1 1 0 0 0 0 1 0 0 0 0 1 1 1 1 1 1 1 1 1 1
 1 1 1 1 1 1 0 0 0 0 1 0 0 0 0 1 1 1 1 1 1 1 1 1 1 1 1 1 1 1
 1 1 1 1 1 0 0 0 0 1 1 1 1 1 1 1 1 1 1 1 1 0 0 0 0 0 0 0 0 0
 0 0 1 1 0 0 0 1 1 0 0 0 0 0 0 0 0 0 0 0 1 1 1 1 0 0 0 0 1 1
 1 1 1 1 1 1 0 0 0 0 0 0 0 1 1 1 1 1 1 1 1 1 1 1 1 1 1 1 1 0
 0 0 0 0 0 0 0 0 0 0 0 0 0 0 0 0 0 0 0 0 0 0 0 0 0 0 0
LOOKUP_TABLE my_color 2
1.0 0.0 1.0 1.0
0.0 1.0 1.0 1.0
