# vtk DataFile Version 2.0
vtk file: 2D Unstructured Grid /mnt/c/Users/aiday/Documents/GitHub/MeshStep/outputs/a_output_5
ASCII

DATASET UNSTRUCTURED_GRID
POINTS 314 float
 +2.00000000E-01 -7.92400000E-01 +0.00000000E+00 +2.23133750E-01 -7.92400000E-01 +0.00000000E+00
 +2.20000000E-01 -7.73200000E-01 +0.00000000E+00 +2.00000000E-01 -7.76400000E-01 +0.00000000E+00
 +2.41591500E-01 -7.92400000E-01 +0.00000000E+00 +2.41591500E-01 -7.76866250E-01 +0.00000000E+00
 +2.45600000E-01 -7.56400000E-01 +0.00000000E+00 +2.60049250E-01 -7.92400000E-01 +0.00000000E+00
 +2.60049250E-01 -7.76866250E-01 +0.00000000E+00 +2.78507000E-01 -7.92400000E-01 +0.00000000E+00
 +2.78507000E-01 -7.76866250E-01 +0.00000000E+00 +2.78507000E-01 -7.58408500E-01 +0.00000000E+00
 +2.60049250E-01 -7.58408500E-01 +0.00000000E+00 +2.56503078E-01 -7.37864767E-01 +0.00000000E+00
 +2.78507000E-01 -7.39950750E-01 +0.00000000E+00 +2.78507000E-01 -7.21493000E-01 +0.00000000E+00
 +2.64569447E-01 -7.24151940E-01 +0.00000000E+00 +2.96964750E-01 -7.92400000E-01 +0.00000000E+00
 +2.96964750E-01 -7.76866250E-01 +0.00000000E+00 +3.15422500E-01 -7.92400000E-01 +0.00000000E+00
 +3.15422500E-01 -7.76866250E-01 +0.00000000E+00 +3.18400000E-01 -7.61200000E-01 +0.00000000E+00
 +2.96964750E-01 -7.58408500E-01 +0.00000000E+00 +3.33880250E-01 -7.92400000E-01 +0.00000000E+00
 +3.34400000E-01 -7.71600000E-01 +0.00000000E+00 +3.52338000E-01 -7.92400000E-01 +0.00000000E+00
 +3.52713333E-01 -7.73988696E-01 +0.00000000E+00 +2.96964750E-01 -7.39950750E-01 +0.00000000E+00
 +3.12000000E-01 -7.39600000E-01 +0.00000000E+00 +3.15949322E-01 -7.21608644E-01 +0.00000000E+00
 +2.96964750E-01 -7.21493000E-01 +0.00000000E+00 +2.96964750E-01 -7.03035250E-01 +0.00000000E+00
 +2.77600000E-01 -7.02000000E-01 +0.00000000E+00 +3.19200000E-01 -7.06800000E-01 +0.00000000E+00
 +3.15422500E-01 -6.84577500E-01 +0.00000000E+00 +2.96964750E-01 -6.84577500E-01 +0.00000000E+00
 +2.84034015E-01 -6.86938555E-01 +0.00000000E+00 +3.29028602E-01 -6.82606518E-01 +0.00000000E+00
 +3.35464833E-01 -6.66763487E-01 +0.00000000E+00 +3.15422500E-01 -6.66119750E-01 +0.00000000E+00
 +3.33880250E-01 -6.47662000E-01 +0.00000000E+00 +3.44515784E-01 -6.44484225E-01 +0.00000000E+00
 +3.15422500E-01 -6.47662000E-01 +0.00000000E+00 +2.93550534E-01 -6.64661250E-01 +0.00000000E+00
 +3.00218571E-01 -6.49051982E-01 +0.00000000E+00 +3.71200000E-01 -7.92400000E-01 +0.00000000E+00
 +3.71200000E-01 -7.76400000E-01 +0.00000000E+00 +3.89253500E-01 -6.04400000E-01 +0.00000000E+00
 +4.07711250E-01 -6.04400000E-01 +0.00000000E+00 +4.07711250E-01 -5.92288750E-01 +0.00000000E+00
 +3.89253500E-01 -5.92288750E-01 +0.00000000E+00 +4.26169000E-01 -6.04400000E-01 +0.00000000E+00
 +4.26169000E-01 -5.92288750E-01 +0.00000000E+00 +4.26169000E-01 -5.70000000E-01 +0.00000000E+00
 +4.07711250E-01 -5.70000000E-01 +0.00000000E+00 +3.89253500E-01 -5.70000000E-01 +0.00000000E+00
 +3.60800000E-01 -6.04400000E-01 +0.00000000E+00 +3.70795750E-01 -6.04400000E-01 +0.00000000E+00
 +3.70795750E-01 -5.92288750E-01 +0.00000000E+00 +3.52338000E-01 -5.92288750E-01 +0.00000000E+00
 +3.74400000E-01 -5.70000000E-01 +0.00000000E+00 +3.52338000E-01 -5.73831000E-01 +0.00000000E+00
 +4.63084500E-01 -6.04400000E-01 +0.00000000E+00 +4.81542250E-01 -6.04400000E-01 +0.00000000E+00
 +4.81542250E-01 -5.92288750E-01 +0.00000000E+00 +4.63084500E-01 -5.92288750E-01 +0.00000000E+00
 +5.00000000E-01 -6.04400000E-01 +0.00000000E+00 +5.00000000E-01 -5.92288750E-01 +0.00000000E+00
 +5.00000000E-01 -5.70000000E-01 +0.00000000E+00 +4.81542250E-01 -5.70000000E-01 +0.00000000E+00
 +4.63084500E-01 -5.70000000E-01 +0.00000000E+00 +4.44626750E-01 -6.04400000E-01 +0.00000000E+00
 +4.44626750E-01 -5.92288750E-01 +0.00000000E+00 +4.44626750E-01 -5.70000000E-01 +0.00000000E+00
 +3.70795750E-01 -5.55373250E-01 +0.00000000E+00 +3.52338000E-01 -5.55373250E-01 +0.00000000E+00
 +3.81755515E-01 -5.52263718E-01 +0.00000000E+00 +3.88286906E-01 -5.36514638E-01 +0.00000000E+00
 +3.70795750E-01 -5.36915500E-01 +0.00000000E+00 +3.48772238E-01 -5.35392262E-01 +0.00000000E+00
 +3.89253500E-01 -5.00000000E-01 +0.00000000E+00 +3.94818297E-01 -5.20765559E-01 +0.00000000E+00
 +4.04058358E-01 -4.98485088E-01 +0.00000000E+00 +3.70795750E-01 -5.18457750E-01 +0.00000000E+00
 +3.55440275E-01 -5.19782994E-01 +0.00000000E+00 +3.64956793E-01 -4.97505688E-01 +0.00000000E+00
 +3.09735090E-01 -6.26774677E-01 +0.00000000E+00 +3.33880250E-01 -6.29204250E-01 +0.00000000E+00
 +3.50952015E-01 -6.28641194E-01 +0.00000000E+00 +3.33880250E-01 -6.10746500E-01 +0.00000000E+00
 +3.16403127E-01 -6.11165408E-01 +0.00000000E+00 +3.33880250E-01 -5.92288750E-01 +0.00000000E+00
 +3.23071163E-01 -5.95556140E-01 +0.00000000E+00 +3.32587682E-01 -5.73278835E-01 +0.00000000E+00
 +3.39255719E-01 -5.57669567E-01 +0.00000000E+00 +5.79200000E-01 -7.92400000E-01 +0.00000000E+00
 +5.92288750E-01 -7.92400000E-01 +0.00000000E+00 +5.92071013E-01 -7.74942904E-01 +0.00000000E+00
 +5.79200000E-01 -7.76400000E-01 +0.00000000E+00 +6.10746500E-01 -7.92400000E-01 +0.00000000E+00
 +6.10295202E-01 -7.72879788E-01 +0.00000000E+00 +6.29204250E-01 -7.92400000E-01 +0.00000000E+00
 +6.21600000E-01 -7.71600000E-01 +0.00000000E+00 +6.47662000E-01 -7.92400000E-01 +0.00000000E+00
 +6.47662000E-01 -7.76866250E-01 +0.00000000E+00 +6.33600000E-01 -7.62800000E-01 +0.00000000E+00
 +6.47662000E-01 -7.58408500E-01 +0.00000000E+00 +6.39200000E-01 -7.44400000E-01 +0.00000000E+00
 +6.47662000E-01 -7.21493000E-01 +0.00000000E+00 +6.31919804E-01 -7.20660230E-01 +0.00000000E+00
 +6.47662000E-01 -7.03035250E-01 +0.00000000E+00 +6.26745995E-01 -7.03789115E-01 +0.00000000E+00
 +6.47662000E-01 -6.84577500E-01 +0.00000000E+00 +6.20800000E-01 -6.84400000E-01 +0.00000000E+00
 +6.29204250E-01 -6.66119750E-01 +0.00000000E+00 +6.12766047E-01 -6.65271540E-01 +0.00000000E+00
 +6.47662000E-01 -6.66119750E-01 +0.00000000E+00 +6.47662000E-01 -6.47662000E-01 +0.00000000E+00
 +6.29204250E-01 -6.47662000E-01 +0.00000000E+00 +6.06176235E-01 -6.49581511E-01 +0.00000000E+00
 +6.66119750E-01 -7.92400000E-01 +0.00000000E+00 +6.66119750E-01 -7.76866250E-01 +0.00000000E+00
 +6.84577500E-01 -7.92400000E-01 +0.00000000E+00 +6.84577500E-01 -7.76866250E-01 +0.00000000E+00
 +6.84577500E-01 -7.58408500E-01 +0.00000000E+00 +6.66119750E-01 -7.58408500E-01 +0.00000000E+00
 +7.03035250E-01 -7.92400000E-01 +0.00000000E+00 +7.03035250E-01 -7.76866250E-01 +0.00000000E+00
 +7.21493000E-01 -7.92400000E-01 +0.00000000E+00 +7.21493000E-01 -7.76866250E-01 +0.00000000E+00
 +7.21493000E-01 -7.58408500E-01 +0.00000000E+00 +7.03035250E-01 -7.58408500E-01 +0.00000000E+00
 +7.39950750E-01 -7.92400000E-01 +0.00000000E+00 +7.39950750E-01 -7.76866250E-01 +0.00000000E+00
 +7.58408500E-01 -7.92400000E-01 +0.00000000E+00 +7.58408500E-01 -7.76866250E-01 +0.00000000E+00
 +7.56000000E-01 -7.61200000E-01 +0.00000000E+00 +7.39950750E-01 -7.58408500E-01 +0.00000000E+00
 +7.76866250E-01 -7.92400000E-01 +0.00000000E+00 +7.74400000E-01 -7.72400000E-01 +0.00000000E+00
 +8.00000000E-01 -7.92400000E-01 +0.00000000E+00 +8.00000000E-01 -7.76400000E-01 +0.00000000E+00
 +7.40800000E-01 -7.39600000E-01 +0.00000000E+00 +7.21493000E-01 -7.39950750E-01 +0.00000000E+00
 +7.33948707E-01 -7.24155560E-01 +0.00000000E+00 +7.21493000E-01 -7.21493000E-01 +0.00000000E+00
 +7.24072024E-01 -7.01891172E-01 +0.00000000E+00 +6.84577500E-01 -7.21493000E-01 +0.00000000E+00
 +7.03035250E-01 -7.21493000E-01 +0.00000000E+00 +7.03035250E-01 -7.03035250E-01 +0.00000000E+00
 +6.84577500E-01 -7.03035250E-01 +0.00000000E+00 +7.17230363E-01 -6.86468444E-01 +0.00000000E+00
 +7.03035250E-01 -6.84577500E-01 +0.00000000E+00 +6.84577500E-01 -6.84577500E-01 +0.00000000E+00
 +7.07353679E-01 -6.64204056E-01 +0.00000000E+00 +6.84577500E-01 -6.66119750E-01 +0.00000000E+00
 +7.00512018E-01 -6.48781329E-01 +0.00000000E+00 +6.84577500E-01 -6.47662000E-01 +0.00000000E+00
 +6.66119750E-01 -6.47662000E-01 +0.00000000E+00 +6.66119750E-01 -6.29204250E-01 +0.00000000E+00
 +6.47662000E-01 -6.29204250E-01 +0.00000000E+00 +6.90635334E-01 -6.26516940E-01 +0.00000000E+00
 +6.83793673E-01 -6.11094213E-01 +0.00000000E+00 +6.66119750E-01 -6.10746500E-01 +0.00000000E+00
 +6.47662000E-01 -6.10746500E-01 +0.00000000E+00 +6.66119750E-01 -5.92288750E-01 +0.00000000E+00
 +6.47662000E-01 -5.92288750E-01 +0.00000000E+00 +6.76952012E-01 -5.95671485E-01 +0.00000000E+00
 +6.67075329E-01 -5.73407097E-01 +0.00000000E+00 +6.47662000E-01 -5.73831000E-01 +0.00000000E+00
 +6.60233668E-01 -5.57984369E-01 +0.00000000E+00 +6.47662000E-01 -5.55373250E-01 +0.00000000E+00
 +6.50356984E-01 -5.35719981E-01 +0.00000000E+00 +5.36915500E-01 -6.04400000E-01 +0.00000000E+00
 +5.55373250E-01 -6.04400000E-01 +0.00000000E+00 +5.55373250E-01 -5.92288750E-01 +0.00000000E+00
 +5.36915500E-01 -5.92288750E-01 +0.00000000E+00 +5.73831000E-01 -6.04400000E-01 +0.00000000E+00
 +5.73831000E-01 -5.92288750E-01 +0.00000000E+00 +5.74400000E-01 -5.70000000E-01 +0.00000000E+00
 +5.55373250E-01 -5.70000000E-01 +0.00000000E+00 +5.36915500E-01 -5.70000000E-01 +0.00000000E+00
 +5.18457750E-01 -6.04400000E-01 +0.00000000E+00 +5.18457750E-01 -5.92288750E-01 +0.00000000E+00
 +5.18457750E-01 -5.70000000E-01 +0.00000000E+00 +6.10746500E-01 -6.29204250E-01 +0.00000000E+00
 +5.96818702E-01 -6.27301670E-01 +0.00000000E+00 +6.10746500E-01 -6.10746500E-01 +0.00000000E+00
 +5.87200000E-01 -6.04400000E-01 +0.00000000E+00 +5.92288750E-01 -5.92288750E-01 +0.00000000E+00
 +6.10746500E-01 -5.92288750E-01 +0.00000000E+00 +6.10746500E-01 -5.73831000E-01 +0.00000000E+00
 +5.92288750E-01 -5.73831000E-01 +0.00000000E+00 +5.92288750E-01 -5.55373250E-01 +0.00000000E+00
 +5.69079924E-01 -5.57375376E-01 +0.00000000E+00 +6.10746500E-01 -5.55373250E-01 +0.00000000E+00
 +6.10746500E-01 -5.36915500E-01 +0.00000000E+00 +5.92288750E-01 -5.36915500E-01 +0.00000000E+00
 +5.73831000E-01 -5.36915500E-01 +0.00000000E+00 +6.29204250E-01 -5.36915500E-01 +0.00000000E+00
 +6.29204250E-01 -5.18457750E-01 +0.00000000E+00 +6.10746500E-01 -5.18457750E-01 +0.00000000E+00
 +6.43515323E-01 -5.20297253E-01 +0.00000000E+00 +6.33638639E-01 -4.98032865E-01 +0.00000000E+00
 +6.10746500E-01 -5.00000000E-01 +0.00000000E+00 +5.59691240E-01 -5.35095879E-01 +0.00000000E+00
 +5.73831000E-01 -5.18457750E-01 +0.00000000E+00 +5.53086024E-01 -5.19421598E-01 +0.00000000E+00
 +5.73831000E-01 -5.00000000E-01 +0.00000000E+00 +5.55373250E-01 -5.00000000E-01 +0.00000000E+00
 +5.43697340E-01 -4.97142101E-01 +0.00000000E+00 +5.55373250E-01 -4.81542250E-01 +0.00000000E+00
 +5.37092125E-01 -4.81467820E-01 +0.00000000E+00 +5.73831000E-01 -4.81542250E-01 +0.00000000E+00
 +5.73831000E-01 -4.63084500E-01 +0.00000000E+00 +5.55373250E-01 -4.63084500E-01 +0.00000000E+00
 +5.30486909E-01 -4.65793538E-01 +0.00000000E+00 +5.36915500E-01 -4.44626750E-01 +0.00000000E+00
 +5.21098225E-01 -4.43514042E-01 +0.00000000E+00 +5.36915500E-01 -4.26169000E-01 +0.00000000E+00
 +5.14493009E-01 -4.27839760E-01 +0.00000000E+00 +6.26796978E-01 -4.82610137E-01 +0.00000000E+00
 +6.10746500E-01 -4.81542250E-01 +0.00000000E+00 +6.16920295E-01 -4.60345749E-01 +0.00000000E+00
 +5.92288750E-01 -4.63084500E-01 +0.00000000E+00 +5.92288750E-01 -4.44626750E-01 +0.00000000E+00
 +5.73831000E-01 -4.44626750E-01 +0.00000000E+00 +6.10078634E-01 -4.44923022E-01 +0.00000000E+00
 +6.03236973E-01 -4.29500294E-01 +0.00000000E+00 +5.92288750E-01 -4.26169000E-01 +0.00000000E+00
 +5.73831000E-01 -4.26169000E-01 +0.00000000E+00 +5.93360289E-01 -4.07235906E-01 +0.00000000E+00
 +5.73831000E-01 -4.07711250E-01 +0.00000000E+00 +5.86518628E-01 -3.91813178E-01 +0.00000000E+00
 +5.73831000E-01 -3.89253500E-01 +0.00000000E+00 +5.76641944E-01 -3.69548790E-01 +0.00000000E+00
 +5.18457750E-01 -4.07711250E-01 +0.00000000E+00 +5.05104325E-01 -4.05560264E-01 +0.00000000E+00
 +5.36915500E-01 -4.07711250E-01 +0.00000000E+00 +5.36915500E-01 -3.89253500E-01 +0.00000000E+00
 +5.18457750E-01 -3.89253500E-01 +0.00000000E+00 +4.98499110E-01 -3.89885982E-01 +0.00000000E+00
 +5.55373250E-01 -3.89253500E-01 +0.00000000E+00 +5.55373250E-01 -3.70795750E-01 +0.00000000E+00
 +5.36915500E-01 -3.70795750E-01 +0.00000000E+00 +5.69800283E-01 -3.54126062E-01 +0.00000000E+00
 +5.55373250E-01 -3.52338000E-01 +0.00000000E+00 +5.36915500E-01 -3.52338000E-01 +0.00000000E+00
 +5.59923600E-01 -3.31861674E-01 +0.00000000E+00 +5.36915500E-01 -3.33880250E-01 +0.00000000E+00
 +5.53081939E-01 -3.16438946E-01 +0.00000000E+00 +5.36915500E-01 -3.15422500E-01 +0.00000000E+00
 +5.43205255E-01 -2.94174558E-01 +0.00000000E+00 +5.00000000E-01 -3.15422500E-01 +0.00000000E+00
 +5.18457750E-01 -3.15422500E-01 +0.00000000E+00 +5.18457750E-01 -2.96964750E-01 +0.00000000E+00
 +5.00000000E-01 -2.96964750E-01 +0.00000000E+00 +5.36363594E-01 -2.78751830E-01 +0.00000000E+00
 +5.18457750E-01 -2.78507000E-01 +0.00000000E+00 +5.00000000E-01 -2.78507000E-01 +0.00000000E+00
 +5.18457750E-01 -2.60049250E-01 +0.00000000E+00 +5.00000000E-01 -2.60049250E-01 +0.00000000E+00
 +5.29521933E-01 -2.63329103E-01 +0.00000000E+00 +5.19645249E-01 -2.41064715E-01 +0.00000000E+00
 +5.00000000E-01 -2.41591500E-01 +0.00000000E+00 +5.12803588E-01 -2.25641987E-01 +0.00000000E+00
 +5.00000000E-01 -2.23133750E-01 +0.00000000E+00 +5.04800000E-01 -2.07600000E-01 +0.00000000E+00
 +3.89253500E-01 -4.81542250E-01 +0.00000000E+00 +3.71624830E-01 -4.81896420E-01 +0.00000000E+00
 +3.89253500E-01 -4.63084500E-01 +0.00000000E+00 +3.78292867E-01 -4.66287152E-01 +0.00000000E+00
 +4.10589749E-01 -4.82736009E-01 +0.00000000E+00 +4.07711250E-01 -4.63084500E-01 +0.00000000E+00
 +4.19829810E-01 -4.60455538E-01 +0.00000000E+00 +4.07711250E-01 -4.44626750E-01 +0.00000000E+00
 +3.87809386E-01 -4.44009847E-01 +0.00000000E+00 +4.26361201E-01 -4.44706459E-01 +0.00000000E+00
 +4.32892592E-01 -4.28957379E-01 +0.00000000E+00 +4.07711250E-01 -4.26169000E-01 +0.00000000E+00
 +3.94477423E-01 -4.28400579E-01 +0.00000000E+00 +4.26169000E-01 -4.07711250E-01 +0.00000000E+00
 +4.42132653E-01 -4.06676909E-01 +0.00000000E+00 +4.48664044E-01 -3.90927829E-01 +0.00000000E+00
 +4.26169000E-01 -3.89253500E-01 +0.00000000E+00 +5.00000000E-01 -3.70795750E-01 +0.00000000E+00
 +4.89110425E-01 -3.67606485E-01 +0.00000000E+00 +5.00000000E-01 -3.52338000E-01 +0.00000000E+00
 +4.82505210E-01 -3.51932204E-01 +0.00000000E+00 +4.44626750E-01 -3.70795750E-01 +0.00000000E+00
 +4.20178497E-01 -3.68236700E-01 +0.00000000E+00 +4.57904105E-01 -3.68647359E-01 +0.00000000E+00
 +4.64435496E-01 -3.52898279E-01 +0.00000000E+00 +4.44626750E-01 -3.52338000E-01 +0.00000000E+00
 +4.26846534E-01 -3.52627432E-01 +0.00000000E+00 +4.03993941E-01 -4.06123274E-01 +0.00000000E+00
 +4.10661978E-01 -3.90514005E-01 +0.00000000E+00 +4.44626750E-01 -3.33880250E-01 +0.00000000E+00
 +4.33514571E-01 -3.37018164E-01 +0.00000000E+00 +4.63084500E-01 -3.33880250E-01 +0.00000000E+00
 +4.63084500E-01 -3.15422500E-01 +0.00000000E+00 +4.43031090E-01 -3.14740859E-01 +0.00000000E+00
 +4.73600000E-01 -3.30800000E-01 +0.00000000E+00 +5.00000000E-01 -3.33880250E-01 +0.00000000E+00
 +4.81542250E-01 -3.15422500E-01 +0.00000000E+00 +4.63084500E-01 -2.96964750E-01 +0.00000000E+00
 +4.49699126E-01 -2.99131590E-01 +0.00000000E+00 +4.59215645E-01 -2.76854285E-01 +0.00000000E+00
 +4.81542250E-01 -2.78507000E-01 +0.00000000E+00 +4.81542250E-01 -2.60049250E-01 +0.00000000E+00
 +4.65883682E-01 -2.61245017E-01 +0.00000000E+00 +4.75400201E-01 -2.38967712E-01 +0.00000000E+00
 +4.82068238E-01 -2.23358444E-01 +0.00000000E+00 +4.88800000E-01 -2.07600000E-01 +0.00000000E+00

CELLS 276 1293
4 0 1 2 3
4 1 4 5 2
3 5 6 2
4 4 7 8 5
4 7 9 10 8
4 8 10 11 12
4 5 8 12 6
3 12 13 6
4 12 11 14 13
4 13 14 15 16
4 9 17 18 10
4 17 19 20 18
4 18 20 21 22
4 10 18 22 11
4 19 23 24 20
4 23 25 26 24
3 20 24 21
4 11 22 27 14
4 22 21 28 27
4 27 28 29 30
4 14 27 30 15
4 15 30 31 32
4 30 29 33 31
4 31 33 34 35
4 32 31 35 36
3 34 33 37
4 34 37 38 39
3 40 38 41
4 39 38 40 42
3 35 43 36
4 35 34 39 43
4 43 39 42 44
3 15 32 16
4 25 45 46 26
4 47 48 49 50
4 48 51 52 49
4 49 52 53 54
4 50 49 54 55
4 56 57 58 59
4 57 47 50 58
4 58 50 55 60
4 59 58 60 61
4 62 63 64 65
4 63 66 67 64
4 64 67 68 69
4 65 64 69 70
4 51 71 72 52
4 71 62 65 72
4 72 65 70 73
4 52 72 73 53
4 61 60 74 75
3 74 60 76
4 74 76 77 78
4 75 74 78 79
3 80 81 82
4 79 78 83 84
4 78 77 81 83
4 83 81 80 85
3 83 85 84
3 42 86 44
4 42 40 87 86
4 40 41 88 87
4 87 88 56 89
4 86 87 89 90
4 90 89 91 92
4 89 56 59 91
4 91 59 61 93
3 91 93 92
4 93 61 75 94
3 75 79 94
4 95 96 97 98
4 96 99 100 97
4 99 101 102 100
4 101 103 104 102
3 104 105 102
3 104 106 105
3 106 107 105
3 108 109 107
4 109 108 110 111
4 111 110 112 113
3 114 115 113
4 113 112 116 114
4 114 116 117 118
4 115 114 118 119
4 103 120 121 104
4 120 122 123 121
4 121 123 124 125
4 104 121 125 106
4 122 126 127 123
4 126 128 129 127
4 127 129 130 131
4 123 127 131 124
4 128 132 133 129
4 132 134 135 133
4 133 135 136 137
4 129 133 137 130
4 134 138 139 135
4 138 140 141 139
3 135 139 136
4 130 137 142 143
3 137 136 142
4 143 142 144 145
3 145 144 146
4 147 148 149 150
4 148 145 146 149
4 149 146 151 152
4 150 149 152 153
4 153 152 154 155
3 152 151 154
4 155 154 156 157
4 117 158 159 160
4 158 157 161 159
4 159 161 162 163
4 160 159 163 164
3 157 156 161
4 164 163 165 166
4 163 162 167 165
3 165 167 168
4 166 165 168 169
4 169 168 170 171
3 171 170 172
4 173 174 175 176
4 174 177 178 175
4 175 178 179 180
4 176 175 180 181
4 66 182 183 67
4 182 173 176 183
4 183 176 181 184
4 67 183 184 68
3 185 186 119
4 186 185 187 188
4 177 188 189 178
4 188 187 190 189
4 189 190 191 192
4 178 189 192 179
4 179 192 193 194
4 192 191 195 193
4 193 195 196 197
4 194 193 197 198
4 196 199 200 201
4 199 172 202 200
3 200 202 203
4 201 200 203 204
3 198 205 194
4 205 198 206 207
4 207 206 208 209
3 209 210 207
4 210 209 211 212
4 209 208 213 211
4 211 213 214 215
4 212 211 215 216
3 217 218 216
4 218 217 219 220
4 204 203 221 222
3 222 221 223
4 214 224 225 226
4 224 223 227 225
4 225 227 228 229
4 226 225 229 230
4 230 229 231 232
3 229 228 231
4 232 231 233 234
3 234 233 235
3 236 237 220
4 220 219 238 236
4 236 238 239 240
4 237 236 240 241
4 239 242 243 244
4 242 234 235 243
4 243 235 245 246
4 244 243 246 247
4 247 246 248 249
3 246 245 248
4 249 248 250 251
3 251 250 252
4 253 254 255 256
4 254 251 252 255
4 255 252 257 258
4 256 255 258 259
4 259 258 260 261
4 258 257 262 260
3 260 262 263
4 261 260 263 264
4 264 263 265 266
3 266 265 267
4 85 80 268 269
4 269 268 270 271
4 80 82 272 268
3 273 272 274
4 268 272 273 270
4 270 273 275 276
4 273 274 277 275
4 275 277 278 279
4 276 275 279 280
3 270 276 271
3 281 278 282
4 281 282 283 284
3 285 286 241
4 286 285 287 288
4 284 283 289 290
3 289 283 291
4 289 291 292 293
4 290 289 293 294
3 279 295 280
4 279 278 281 295
4 295 281 284 296
3 284 290 296
4 294 293 297 298
4 293 292 299 297
4 297 299 300 301
3 297 301 298
3 299 292 302
4 288 287 303 302
4 302 303 253 304
4 299 302 304 300
4 301 300 305 306
3 305 307 306
4 307 308 309 310
4 308 259 261 309
4 309 261 264 311
3 309 311 310
4 311 264 266 312
4 312 266 267 313
3 130 143 131
3 143 148 131
3 143 145 148
4 131 148 147 124
3 108 107 147
3 107 125 147
3 125 124 147
3 107 106 125
4 147 150 110 108
4 150 153 112 110
3 157 158 155
3 158 116 155
3 158 117 116
4 155 116 112 153
3 119 118 185
3 118 160 185
3 118 117 160
4 185 160 164 187
4 164 166 190 187
4 166 169 191 190
3 172 199 171
3 199 195 171
3 199 196 195
4 171 195 191 169
3 198 197 206
3 197 201 206
3 197 196 201
4 206 201 204 208
3 216 215 217
3 215 226 217
3 215 214 226
4 217 226 230 219
3 223 224 222
3 224 213 222
3 224 214 213
4 222 213 208 204
3 234 242 232
3 242 238 232
3 242 239 238
4 232 238 219 230
3 241 240 285
3 240 244 285
3 240 239 244
4 285 244 247 287
3 251 254 249
3 254 303 249
3 254 253 303
4 249 303 287 247
3 305 300 304
3 304 253 256
3 256 259 308
3 308 307 305
4 304 256 308 305

CELL_TYPES 276
 9 9 5 9 9 9 9 5 9 9 9 9 9 9 9 9 5 9 9 9 9 9 9 9 9 5 9 5 9 5
 9 9 5 9 9 9 9 9 9 9 9 9 9 9 9 9 9 9 9 9 9 5 9 9 5 9 9 9 5 5
 9 9 9 9 9 9 9 5 9 5 9 9 9 9 5 5 5 5 9 9 5 9 9 9 9 9 9 9 9 9
 9 9 9 9 9 9 9 9 5 9 5 9 5 9 9 9 9 9 5 9 9 9 9 9 5 9 9 5 9 9
 5 9 9 9 9 9 9 9 9 5 9 9 9 9 9 9 9 9 9 9 9 5 9 5 9 9 5 9 9 9
 9 5 9 9 5 9 9 9 9 9 5 9 5 5 9 9 9 9 9 9 9 9 5 9 5 9 9 9 9 9
 9 5 9 9 5 9 9 9 5 9 9 9 9 9 5 5 9 5 9 9 5 9 9 5 9 9 5 9 9 9
 5 5 9 9 9 9 5 9 9 9 5 9 9 5 5 5 9 5 5 5 5 9 9 5 5 5 9 5 5 5
 9 9 9 5 5 5 9 5 5 5 9 5 5 5 9 5 5 5 9 5 5 5 9 5 5 5 9 5 5 5
 9 5 5 5 5 9
CELL_DATA 276
SCALARS elemType int 1
LOOKUP_TABLE my_color
 1 1 0 1 1 1 1 0 1 1 1 1 1 1 1 1 0 1 1 1 1 1 1 1 1 0 1 0 1 0
 1 1 0 1 1 1 1 1 1 1 1 1 1 1 1 1 1 1 1 1 1 0 1 1 0 1 1 1 0 0
 1 1 1 1 1 1 1 0 1 0 1 1 1 1 0 0 0 0 1 1 0 1 1 1 1 1 1 1 1 1
 1 1 1 1 1 1 1 1 0 1 0 1 0 1 1 1 1 1 0 1 1 1 1 1 0 1 1 0 1 1
 0 1 1 1 1 1 1 1 1 0 1 1 1 1 1 1 1 1 1 1 1 0 1 0 1 1 0 1 1 1
 1 0 1 1 0 1 1 1 1 1 0 1 0 0 1 1 1 1 1 1 1 1 0 1 0 1 1 1 1 1
 1 0 1 1 0 1 1 1 0 1 1 1 1 1 0 0 1 0 1 1 0 1 1 0 1 1 0 1 1 1
 0 0 1 1 1 1 0 1 1 1 0 1 1 0 0 0 1 0 0 0 0 1 1 0 0 0 1 0 0 0
 1 1 1 0 0 0 1 0 0 0 1 0 0 0 1 0 0 0 1 0 0 0 1 0 0 0 1 0 0 0
 1 0 0 0 0 1
LOOKUP_TABLE my_color 2
1.0 0.0 1.0 1.0
0.0 1.0 1.0 1.0

SCALARS surfState int 1
LOOKUP_TABLE default
 1 1 1 1 1 0 1 1 0 1 1 1 1 0 1 1 1 0 1 1 0 1 1 1 1 1 1 1 0 1
 0 1 1 1 1 1 0 0 1 1 1 1 1 1 0 0 1 1 0 0 1 1 1 0 1 1 1 0 1 1
 0 1 1 1 1 1 0 1 1 1 1 1 1 1 1 1 1 1 1 1 1 1 0 1 1 1 0 0 1 1
 0 0 1 1 1 0 1 1 1 1 1 1 1 0 0 1 0 0 1 1 0 0 1 0 1 0 1 1 0 1
 1 1 1 1 0 1 1 0 0 1 1 1 1 0 1 1 0 0 0 0 1 1 0 1 1 0 1 1 0 0
 1 1 1 1 1 0 1 1 0 0 1 1 1 1 0 0 1 0 0 1 0 0 1 1 1 0 0 1 0 0
 1 1 0 1 1 1 1 1 1 0 0 1 0 1 1 1 1 1 1 0 1 1 1 1 0 1 1 1 0 0
 1 1 1 1 1 1 1 1 0 0 1 1 1 0 0 0 0 1 1 1 1 0 0 0 0 0 0 0 0 0
 0 0 0 0 0 0 0 0 0 0 0 0 0 0 0 0 0 0 0 0 0 0 0 0 0 0 0 0 0 0
 0 0 0 0 0 0
SCALARS refLevel int 1
LOOKUP_TABLE default
 5 5 5 5 5 5 5 5 5 5 5 5 5 5 5 5 5 5 5 5 5 5 5 5 5 5 5 5 5 5
 5 5 5 5 5 5 5 5 5 5 5 5 5 5 5 5 5 5 5 5 5 5 5 5 5 5 5 5 5 5
 5 5 5 5 5 5 5 5 5 5 5 5 5 5 5 5 5 5 5 5 5 5 5 5 5 5 5 5 5 5
 5 5 5 5 5 5 5 5 5 5 5 5 5 5 5 5 5 5 5 5 5 5 5 5 5 5 5 5 5 5
 5 5 5 5 5 5 5 5 5 5 5 5 5 5 5 5 5 5 5 5 5 5 5 5 5 5 5 5 5 5
 5 5 5 5 5 5 5 5 5 5 5 5 5 5 5 5 5 5 5 5 5 5 5 5 5 5 5 5 5 5
 5 5 5 5 5 5 5 5 5 5 5 5 5 5 5 5 5 5 5 5 5 5 5 5 5 5 5 5 5 5
 5 5 5 5 5 5 5 5 5 5 5 5 5 4 4 4 4 4 4 4 4 4 4 4 4 4 4 4 4 4
 4 4 4 4 4 4 4 4 4 4 4 4 4 4 4 4 4 4 4 4 4 4 4 4 4 4 4 4 4 4
 4 4 4 4 4 4

SCALARS minAngle int 1
LOOKUP_TABLE min
 9 18 17 0 0 -2147483648 11 19 -2147483648 25 0 0 7 -2147483648 16 6 11 -2147483648 23 12 -2147483648 5 9 19 20 28 20 33 -2147483648 27
 -2147483648 19 26 6 0 0 -2147483648 -2147483648 34 0 9 19 0 0 -2147483648 -2147483648 0 0 -2147483648 -2147483648 9 23 23 -2147483648 22 19 17 -2147483648 21 21
 -2147483648 23 35 17 24 21 -2147483648 32 21 26 5 5 20 31 26 15 11 22 14 17 12 24 -2147483648 18 0 0 -2147483648 -2147483648 0 0
 -2147483648 -2147483648 0 0 9 -2147483648 8 15 13 3 22 22 28 -2147483648 -2147483648 20 -2147483648 -2147483648 24 19 -2147483648 -2147483648 17 -2147483648 20 -2147483648 25 33 -2147483648 22
 28 0 0 1 -2147483648 0 0 -2147483648 -2147483648 24 37 22 15 -2147483648 10 17 -2147483648 -2147483648 -2147483648 -2147483648 20 23 -2147483648 24 20 -2147483648 30 23 -2147483648 -2147483648
 16 20 18 19 19 -2147483648 17 24 -2147483648 -2147483648 32 22 27 26 -2147483648 -2147483648 21 -2147483648 -2147483648 20 -2147483648 -2147483648 23 18 19 -2147483648 -2147483648 17 -2147483648 -2147483648
 24 32 -2147483648 22 18 17 24 19 29 -2147483648 -2147483648 22 -2147483648 21 32 19 18 32 24 -2147483648 26 20 17 26 -2147483648 19 20 24 -2147483648 -2147483648
 32 33 29 20 27 21 25 18 -2147483648 -2147483648 20 17 23 -2147483648 -2147483648 -2147483648 -2147483648 33 23 33 32 -2147483648 -2147483648 -2147483648 -2147483648 -2147483648 -2147483648 -2147483648 -2147483648 -2147483648
 -2147483648 -2147483648 -2147483648 -2147483648 -2147483648 -2147483648 -2147483648 -2147483648 -2147483648 -2147483648 -2147483648 -2147483648 -2147483648 -2147483648 -2147483648 -2147483648 -2147483648 -2147483648 -2147483648 -2147483648 -2147483648 -2147483648 -2147483648 -2147483648 -2147483648 -2147483648 -2147483648 -2147483648 -2147483648 -2147483648
 -2147483648 -2147483648 -2147483648 -2147483648 -2147483648 -2147483648

SCALARS maxAngle int 1
LOOKUP_TABLE max
 9 9 31 0 0 -90 7 12 -90 41 0 0 10 -90 15 6 7 -90 15 13 -90 3 12 9 33 28 30 41 -90 30
 -90 28 38 7 0 0 -90 -90 34 0 9 9 0 0 -90 -90 0 0 -90 -90 13 31 38 -90 20 28 23 -90 19 19
 -90 38 23 24 39 34 -90 42 33 29 6 5 13 20 38 12 16 12 20 14 8 24 -90 25 0 0 -90 -90 0 0
 -90 -90 0 0 18 -90 15 8 23 2 37 35 34 -90 -90 31 -90 -90 25 27 -90 -90 25 -90 18 -90 41 44 -90 35
 33 0 0 1 -90 0 0 -90 -90 25 30 22 22 -90 12 34 -90 -90 -90 -90 31 25 -90 24 30 -90 37 36 -90 -90
 23 17 26 27 17 -90 24 40 -90 -90 43 35 33 28 -90 -90 32 -90 -90 30 -90 -90 24 27 17 -90 -90 24 -90 -90
 40 42 -90 35 23 24 39 28 33 -90 -90 34 -90 32 41 16 26 41 39 -90 27 31 24 29 -90 27 18 38 -90 -90
 41 42 24 27 43 32 28 27 -90 -90 18 23 23 -60 -60 -60 -90 50 29 29 61 -90 -90 -60 -60 -60 -90 -60 -60 -60
 -90 -90 -90 -60 -60 -60 -90 -60 -60 -60 -90 -60 -60 -60 -90 -60 -60 -60 -90 -60 -60 -60 -90 -60 -60 -60 -90 -60 -60 -60
 -90 -60 -60 -60 -60 -90

SCALARS debugging int 1
LOOKUP_TABLE default
 0 0 0 0 0 0 0 0 0 0 0 0 0 0 0 0 0 0 0 0 0 0 0 0 0 0 0 0 0 0
 0 0 0 0 0 0 0 0 0 0 0 0 0 0 0 0 0 0 0 0 0 0 0 0 0 0 0 0 0 0
 0 0 0 0 0 0 0 0 0 0 0 0 0 0 0 0 0 0 0 0 0 0 0 0 0 0 0 0 0 0
 0 0 0 0 0 0 0 0 0 0 0 0 0 0 0 0 0 0 0 0 0 0 0 0 0 0 0 0 0 0
 0 0 0 0 0 0 0 0 0 0 0 0 0 0 0 0 0 0 0 0 0 0 0 0 0 0 0 0 0 0
 0 0 0 0 0 0 0 0 0 0 0 0 0 0 0 0 0 0 0 0 0 0 0 0 0 0 0 0 0 0
 0 0 0 0 0 0 0 0 0 0 0 0 0 0 0 0 0 0 0 0 0 0 0 0 0 0 0 0 0 0
 0 0 0 0 0 0 0 0 0 0 0 0 0 0 0 0 0 0 0 0 0 0 0 0 0 0 0 0 0 0
 0 0 0 0 0 0 0 0 0 0 0 0 0 0 0 0 0 0 0 0 0 0 0 0 0 0 0 0 0 0
 0 0 0 0 0 0