# vtk DataFile Version 5.1
vtk output
ASCII
DATASET UNSTRUCTURED_GRID
POINTS 314 float
0.2 -0.7924 0 0.223134 -0.7924 0 0.22 -0.7732 0 
0.2 -0.7764 0 0.241591 -0.7924 0 0.241591 -0.776866 0 
0.2456 -0.7564 0 0.260049 -0.7924 0 0.260049 -0.776866 0 
0.278507 -0.7924 0 0.278507 -0.776866 0 0.278507 -0.758408 0 
0.260049 -0.758408 0 0.256503 -0.737865 0 0.278507 -0.739951 0 
0.278507 -0.721493 0 0.264569 -0.724152 0 0.296965 -0.7924 0 
0.296965 -0.776866 0 0.315423 -0.7924 0 0.315423 -0.776866 0 
0.3184 -0.7612 0 0.296965 -0.758408 0 0.33388 -0.7924 0 
0.3344 -0.7716 0 0.352338 -0.7924 0 0.352713 -0.773989 0 
0.296965 -0.739951 0 0.312 -0.7396 0 0.315949 -0.721609 0 
0.296965 -0.721493 0 0.296965 -0.703035 0 0.2776 -0.702 0 
0.3192 -0.7068 0 0.315423 -0.684578 0 0.296965 -0.684578 0 
0.284034 -0.686939 0 0.329029 -0.682607 0 0.335465 -0.666763 0 
0.315423 -0.66612 0 0.33388 -0.647662 0 0.344516 -0.644484 0 
0.315423 -0.647662 0 0.293551 -0.664661 0 0.300219 -0.649052 0 
0.3712 -0.7924 0 0.3712 -0.7764 0 0.389253 -0.6044 0 
0.407711 -0.6044 0 0.407711 -0.592289 0 0.389253 -0.592289 0 
0.426169 -0.6044 0 0.426169 -0.592289 0 0.426169 -0.57 0 
0.407711 -0.57 0 0.389253 -0.57 0 0.3608 -0.6044 0 
0.370796 -0.6044 0 0.370796 -0.592289 0 0.352338 -0.592289 0 
0.3744 -0.57 0 0.352338 -0.573831 0 0.463084 -0.6044 0 
0.481542 -0.6044 0 0.481542 -0.592289 0 0.463084 -0.592289 0 
0.5 -0.6044 0 0.5 -0.592289 0 0.5 -0.57 0 
0.481542 -0.57 0 0.463084 -0.57 0 0.444627 -0.6044 0 
0.444627 -0.592289 0 0.444627 -0.57 0 0.370796 -0.555373 0 
0.352338 -0.555373 0 0.381756 -0.552264 0 0.388287 -0.536515 0 
0.370796 -0.536915 0 0.348772 -0.535392 0 0.389253 -0.5 0 
0.394818 -0.520766 0 0.404058 -0.498485 0 0.370796 -0.518458 0 
0.35544 -0.519783 0 0.364957 -0.497506 0 0.309735 -0.626775 0 
0.33388 -0.629204 0 0.350952 -0.628641 0 0.33388 -0.610747 0 
0.316403 -0.611165 0 0.33388 -0.592289 0 0.323071 -0.595556 0 
0.332588 -0.573279 0 0.339256 -0.55767 0 0.5792 -0.7924 0 
0.592289 -0.7924 0 0.592071 -0.774943 0 0.5792 -0.7764 0 
0.610747 -0.7924 0 0.610295 -0.77288 0 0.629204 -0.7924 0 
0.6216 -0.7716 0 0.647662 -0.7924 0 0.647662 -0.776866 0 
0.6336 -0.7628 0 0.647662 -0.758408 0 0.6392 -0.7444 0 
0.647662 -0.721493 0 0.63192 -0.72066 0 0.647662 -0.703035 0 
0.626746 -0.703789 0 0.647662 -0.684578 0 0.6208 -0.6844 0 
0.629204 -0.66612 0 0.612766 -0.665272 0 0.647662 -0.66612 0 
0.647662 -0.647662 0 0.629204 -0.647662 0 0.606176 -0.649581 0 
0.66612 -0.7924 0 0.66612 -0.776866 0 0.684578 -0.7924 0 
0.684578 -0.776866 0 0.684578 -0.758408 0 0.66612 -0.758408 0 
0.703035 -0.7924 0 0.703035 -0.776866 0 0.721493 -0.7924 0 
0.721493 -0.776866 0 0.721493 -0.758408 0 0.703035 -0.758408 0 
0.739951 -0.7924 0 0.739951 -0.776866 0 0.758408 -0.7924 0 
0.758408 -0.776866 0 0.756 -0.7612 0 0.739951 -0.758408 0 
0.776866 -0.7924 0 0.7744 -0.7724 0 0.8 -0.7924 0 
0.8 -0.7764 0 0.7408 -0.7396 0 0.721493 -0.739951 0 
0.733949 -0.724156 0 0.721493 -0.721493 0 0.724072 -0.701891 0 
0.684578 -0.721493 0 0.703035 -0.721493 0 0.703035 -0.703035 0 
0.684578 -0.703035 0 0.71723 -0.686468 0 0.703035 -0.684578 0 
0.684578 -0.684578 0 0.707354 -0.664204 0 0.684578 -0.66612 0 
0.700512 -0.648781 0 0.684578 -0.647662 0 0.66612 -0.647662 0 
0.66612 -0.629204 0 0.647662 -0.629204 0 0.690635 -0.626517 0 
0.683794 -0.611094 0 0.66612 -0.610747 0 0.647662 -0.610747 0 
0.66612 -0.592289 0 0.647662 -0.592289 0 0.676952 -0.595671 0 
0.667075 -0.573407 0 0.647662 -0.573831 0 0.660234 -0.557984 0 
0.647662 -0.555373 0 0.650357 -0.53572 0 0.536915 -0.6044 0 
0.555373 -0.6044 0 0.555373 -0.592289 0 0.536915 -0.592289 0 
0.573831 -0.6044 0 0.573831 -0.592289 0 0.5744 -0.57 0 
0.555373 -0.57 0 0.536915 -0.57 0 0.518458 -0.6044 0 
0.518458 -0.592289 0 0.518458 -0.57 0 0.610747 -0.629204 0 
0.596819 -0.627302 0 0.610747 -0.610747 0 0.5872 -0.6044 0 
0.592289 -0.592289 0 0.610747 -0.592289 0 0.610747 -0.573831 0 
0.592289 -0.573831 0 0.592289 -0.555373 0 0.56908 -0.557375 0 
0.610747 -0.555373 0 0.610747 -0.536915 0 0.592289 -0.536915 0 
0.573831 -0.536915 0 0.629204 -0.536915 0 0.629204 -0.518458 0 
0.610747 -0.518458 0 0.643515 -0.520297 0 0.633639 -0.498033 0 
0.610747 -0.5 0 0.559691 -0.535096 0 0.573831 -0.518458 0 
0.553086 -0.519422 0 0.573831 -0.5 0 0.555373 -0.5 0 
0.543697 -0.497142 0 0.555373 -0.481542 0 0.537092 -0.481468 0 
0.573831 -0.481542 0 0.573831 -0.463084 0 0.555373 -0.463084 0 
0.530487 -0.465794 0 0.536915 -0.444627 0 0.521098 -0.443514 0 
0.536915 -0.426169 0 0.514493 -0.42784 0 0.626797 -0.48261 0 
0.610747 -0.481542 0 0.61692 -0.460346 0 0.592289 -0.463084 0 
0.592289 -0.444627 0 0.573831 -0.444627 0 0.610079 -0.444923 0 
0.603237 -0.4295 0 0.592289 -0.426169 0 0.573831 -0.426169 0 
0.59336 -0.407236 0 0.573831 -0.407711 0 0.586519 -0.391813 0 
0.573831 -0.389253 0 0.576642 -0.369549 0 0.518458 -0.407711 0 
0.505104 -0.40556 0 0.536915 -0.407711 0 0.536915 -0.389253 0 
0.518458 -0.389253 0 0.498499 -0.389886 0 0.555373 -0.389253 0 
0.555373 -0.370796 0 0.536915 -0.370796 0 0.5698 -0.354126 0 
0.555373 -0.352338 0 0.536915 -0.352338 0 0.559924 -0.331862 0 
0.536915 -0.33388 0 0.553082 -0.316439 0 0.536915 -0.315423 0 
0.543205 -0.294175 0 0.5 -0.315423 0 0.518458 -0.315423 0 
0.518458 -0.296965 0 0.5 -0.296965 0 0.536364 -0.278752 0 
0.518458 -0.278507 0 0.5 -0.278507 0 0.518458 -0.260049 0 
0.5 -0.260049 0 0.529522 -0.263329 0 0.519645 -0.241065 0 
0.5 -0.241591 0 0.512804 -0.225642 0 0.5 -0.223134 0 
0.5048 -0.2076 0 0.389253 -0.481542 0 0.371625 -0.481896 0 
0.389253 -0.463084 0 0.378293 -0.466287 0 0.41059 -0.482736 0 
0.407711 -0.463084 0 0.41983 -0.460456 0 0.407711 -0.444627 0 
0.387809 -0.44401 0 0.426361 -0.444706 0 0.432893 -0.428957 0 
0.407711 -0.426169 0 0.394477 -0.428401 0 0.426169 -0.407711 0 
0.442133 -0.406677 0 0.448664 -0.390928 0 0.426169 -0.389253 0 
0.5 -0.370796 0 0.48911 -0.367606 0 0.5 -0.352338 0 
0.482505 -0.351932 0 0.444627 -0.370796 0 0.420179 -0.368237 0 
0.457904 -0.368647 0 0.464435 -0.352898 0 0.444627 -0.352338 0 
0.426847 -0.352627 0 0.403994 -0.406123 0 0.410662 -0.390514 0 
0.444627 -0.33388 0 0.433515 -0.337018 0 0.463084 -0.33388 0 
0.463084 -0.315423 0 0.443031 -0.314741 0 0.4736 -0.3308 0 
0.5 -0.33388 0 0.481542 -0.315423 0 0.463084 -0.296965 0 
0.449699 -0.299132 0 0.459216 -0.276854 0 0.481542 -0.278507 0 
0.481542 -0.260049 0 0.465884 -0.261245 0 0.4754 -0.238968 0 
0.482068 -0.223358 0 0.4888 -0.2076 0 
CELLS 277 1017
OFFSETS vtktypeint64
0 4 8 11 15 19 23 27 30 
34 38 42 46 50 54 58 62 65 
69 73 77 81 85 89 93 97 100 
104 107 111 114 118 122 125 129 133 
137 141 145 149 153 157 161 165 169 
173 177 181 185 189 193 197 200 204 
208 211 215 219 223 226 229 233 237 
241 245 249 253 257 260 264 267 271 
275 279 283 286 289 292 295 299 303 
306 310 314 318 322 326 330 334 338 
342 346 350 354 358 362 366 370 374 
377 381 384 388 391 395 399 403 407 
411 414 418 422 426 430 434 437 441 
445 448 452 456 459 463 467 471 475 
479 483 487 491 494 498 502 506 510 
514 518 522 526 530 534 538 541 545 
548 552 556 559 563 567 571 575 578 
582 586 589 593 597 601 605 609 612 
616 619 622 626 630 634 638 642 646 
650 654 657 661 664 668 672 676 680 
684 688 691 695 699 702 706 710 714 
717 721 725 729 733 737 740 743 747 
750 754 758 761 765 769 772 776 780 
783 787 791 795 798 801 805 809 813 
817 820 824 828 832 835 839 843 846 
849 852 856 859 862 865 868 872 876 
879 882 885 889 892 895 898 902 906 
910 913 916 919 923 926 929 932 936 
939 942 945 949 952 955 958 962 965 
968 971 975 978 981 984 988 991 994 
997 1001 1004 1007 1010 1013 1017 
CONNECTIVITY vtktypeint64
0 1 2 3 1 4 5 2 5 
6 2 4 7 8 5 7 9 10 
8 8 10 11 12 5 8 12 6 
12 13 6 12 11 14 13 13 14 
15 16 9 17 18 10 17 19 20 
18 18 20 21 22 10 18 22 11 
19 23 24 20 23 25 26 24 20 
24 21 11 22 27 14 22 21 28 
27 27 28 29 30 14 27 30 15 
15 30 31 32 30 29 33 31 31 
33 34 35 32 31 35 36 34 33 
37 34 37 38 39 40 38 41 39 
38 40 42 35 43 36 35 34 39 
43 43 39 42 44 15 32 16 25 
45 46 26 47 48 49 50 48 51 
52 49 49 52 53 54 50 49 54 
55 56 57 58 59 57 47 50 58 
58 50 55 60 59 58 60 61 62 
63 64 65 63 66 67 64 64 67 
68 69 65 64 69 70 51 71 72 
52 71 62 65 72 72 65 70 73 
52 72 73 53 61 60 74 75 74 
60 76 74 76 77 78 75 74 78 
79 80 81 82 79 78 83 84 78 
77 81 83 83 81 80 85 83 85 
84 42 86 44 42 40 87 86 40 
41 88 87 87 88 56 89 86 87 
89 90 90 89 91 92 89 56 59 
91 91 59 61 93 91 93 92 93 
61 75 94 75 79 94 95 96 97 
98 96 99 100 97 99 101 102 100 
101 103 104 102 104 105 102 104 106 
105 106 107 105 108 109 107 109 108 
110 111 111 110 112 113 114 115 113 
113 112 116 114 114 116 117 118 115 
114 118 119 103 120 121 104 120 122 
123 121 121 123 124 125 104 121 125 
106 122 126 127 123 126 128 129 127 
127 129 130 131 123 127 131 124 128 
132 133 129 132 134 135 133 133 135 
136 137 129 133 137 130 134 138 139 
135 138 140 141 139 135 139 136 130 
137 142 143 137 136 142 143 142 144 
145 145 144 146 147 148 149 150 148 
145 146 149 149 146 151 152 150 149 
152 153 153 152 154 155 152 151 154 
155 154 156 157 117 158 159 160 158 
157 161 159 159 161 162 163 160 159 
163 164 157 156 161 164 163 165 166 
163 162 167 165 165 167 168 166 165 
168 169 169 168 170 171 171 170 172 
173 174 175 176 174 177 178 175 175 
178 179 180 176 175 180 181 66 182 
183 67 182 173 176 183 183 176 181 
184 67 183 184 68 185 186 119 186 
185 187 188 177 188 189 178 188 187 
190 189 189 190 191 192 178 189 192 
179 179 192 193 194 192 191 195 193 
193 195 196 197 194 193 197 198 196 
199 200 201 199 172 202 200 200 202 
203 201 200 203 204 198 205 194 205 
198 206 207 207 206 208 209 209 210 
207 210 209 211 212 209 208 213 211 
211 213 214 215 212 211 215 216 217 
218 216 218 217 219 220 204 203 221 
222 222 221 223 214 224 225 226 224 
223 227 225 225 227 228 229 226 225 
229 230 230 229 231 232 229 228 231 
232 231 233 234 234 233 235 236 237 
220 220 219 238 236 236 238 239 240 
237 236 240 241 239 242 243 244 242 
234 235 243 243 235 245 246 244 243 
246 247 247 246 248 249 246 245 248 
249 248 250 251 251 250 252 253 254 
255 256 254 251 252 255 255 252 257 
258 256 255 258 259 259 258 260 261 
258 257 262 260 260 262 263 261 260 
263 264 264 263 265 266 266 265 267 
85 80 268 269 269 268 270 271 80 
82 272 268 273 272 274 268 272 273 
270 270 273 275 276 273 274 277 275 
275 277 278 279 276 275 279 280 270 
276 271 281 278 282 281 282 283 284 
285 286 241 286 285 287 288 284 283 
289 290 289 283 291 289 291 292 293 
290 289 293 294 279 295 280 279 278 
281 295 295 281 284 296 284 290 296 
294 293 297 298 293 292 299 297 297 
299 300 301 297 301 298 299 292 302 
288 287 303 302 302 303 253 304 299 
302 304 300 301 300 305 306 305 307 
306 307 308 309 310 308 259 261 309 
309 261 264 311 309 311 310 311 264 
266 312 312 266 267 313 130 143 131 
143 148 131 143 145 148 131 148 147 
124 108 107 147 107 125 147 125 124 
147 107 106 125 147 150 110 108 150 
153 112 110 157 158 155 158 116 155 
158 117 116 155 116 112 153 119 118 
185 118 160 185 118 117 160 185 160 
164 187 164 166 190 187 166 169 191 
190 172 199 171 199 195 171 199 196 
195 171 195 191 169 198 197 206 197 
201 206 197 196 201 206 201 204 208 
216 215 217 215 226 217 215 214 226 
217 226 230 219 223 224 222 224 213 
222 224 214 213 222 213 208 204 234 
242 232 242 238 232 242 239 238 232 
238 219 230 241 240 285 240 244 285 
240 239 244 285 244 247 287 251 254 
249 254 303 249 254 253 303 249 303 
287 247 305 300 304 304 253 256 256 
259 308 308 307 305 304 256 308 305 

CELL_TYPES 276
9
9
5
9
9
9
9
5
9
9
9
9
9
9
9
9
5
9
9
9
9
9
9
9
9
5
9
5
9
5
9
9
5
9
9
9
9
9
9
9
9
9
9
9
9
9
9
9
9
9
9
5
9
9
5
9
9
9
5
5
9
9
9
9
9
9
9
5
9
5
9
9
9
9
5
5
5
5
9
9
5
9
9
9
9
9
9
9
9
9
9
9
9
9
9
9
9
9
5
9
5
9
5
9
9
9
9
9
5
9
9
9
9
9
5
9
9
5
9
9
5
9
9
9
9
9
9
9
9
5
9
9
9
9
9
9
9
9
9
9
9
5
9
5
9
9
5
9
9
9
9
5
9
9
5
9
9
9
9
9
5
9
5
5
9
9
9
9
9
9
9
9
5
9
5
9
9
9
9
9
9
5
9
9
5
9
9
9
5
9
9
9
9
9
5
5
9
5
9
9
5
9
9
5
9
9
5
9
9
9
5
5
9
9
9
9
5
9
9
9
5
9
9
5
5
5
9
5
5
5
5
9
9
5
5
5
9
5
5
5
9
9
9
5
5
5
9
5
5
5
9
5
5
5
9
5
5
5
9
5
5
5
9
5
5
5
9
5
5
5
9
5
5
5
5
9

CELL_DATA 276
COLOR_SCALARS CellColors 3
0.447059 0.54902 0 0.4 0.6 0 0.2 0.8 0 
0.298039 0.698039 0 0.298039 0.698039 0 
0.4 0.6 0 0.34902 0.647059 0 
0.0470588 0.94902 0 0.447059 0.54902 0 
0.298039 0.698039 0 0.298039 0.698039 0 
0.298039 0.698039 0 0.4 0.6 0 
0.4 0.6 0 0.4 0.6 0 
0.4 0.6 0 0.0470588 0.94902 0 
0.4 0.6 0 0.4 0.6 0 
0.34902 0.647059 0 0.4 0.6 0 
0.4 0.6 0 0.4 0.6 0 
0.498039 0.498039 0 0.247059 0.74902 0 
0.0980392 0.898039 0 0.298039 0.698039 0 
0 1 0 0.4 0.6 0 
0.0470588 0.94902 0 0.447059 0.54902 0 
0.34902 0.647059 0 0.0470588 0.94902 0 
0.34902 0.647059 0 0.2 0.8 0 
0.2 0.8 0 0.498039 0.498039 0 
0.498039 0.498039 0 0.0980392 0.898039 0 
0.2 0.8 0 0.447059 0.54902 0 
0.498039 0.498039 0 0.2 0.8 0 
0.2 0.8 0 0.498039 0.498039 0 
0.498039 0.498039 0 0.2 0.8 0 
0.2 0.8 0 0.498039 0.498039 0 
0.498039 0.498039 0 0.4 0.6 0 
0 1 0 0.2 0.8 0 
0.447059 0.54902 0 0.0980392 0.898039 0 
0.34902 0.647059 0 0.4 0.6 0 
0.6 0.4 0 0.0980392 0.898039 0 
0.0980392 0.898039 0 0.498039 0.498039 0 
0.2 0.8 0 0.54902 0.447059 0 
0.4 0.6 0 0.2 0.8 0 
0.4 0.6 0 0.4 0.6 0 
0 1 0 0.298039 0.698039 0 
0.0470588 0.94902 0 0.2 0.8 0 
0.4 0.6 0 0.298039 0.698039 0 
0.447059 0.54902 0 0.0470588 0.94902 0 
0.0470588 0.94902 0 0 1 0 
0.14902 0.847059 0 0.34902 0.647059 0 
0.54902 0.447059 0 0.0980392 0.898039 0 
0.498039 0.498039 0 0.4 0.6 0 
0.4 0.6 0 0.298039 0.698039 0 
0.298039 0.698039 0 0.4 0.6 0 
0.4 0.6 0 0.298039 0.698039 0 
0.298039 0.698039 0 0.4 0.6 0 
0.4 0.6 0 0.298039 0.698039 0 
0.298039 0.698039 0 0.298039 0.698039 0 
0.4 0.6 0 0.34902 0.647059 0 
0.54902 0.447059 0 0.0470588 0.94902 0 
0.4 0.6 0 0.0980392 0.898039 0 
0.247059 0.74902 0 0.0470588 0.94902 0 
0.4 0.6 0 0.447059 0.54902 0 
0.298039 0.698039 0 0.4 0.6 0 
0.447059 0.54902 0 0.0980392 0.898039 0 
0.34902 0.647059 0 0.4 0.6 0 
0.498039 0.498039 0 0.4 0.6 0 
0.4 0.6 0 0.0980392 0.898039 0 
0.4 0.6 0 0.2 0.8 0 
0 1 0 0.4 0.6 0 
0.247059 0.74902 0 0.0470588 0.94902 0 
0.2 0.8 0 0.2 0.8 0 
0.498039 0.498039 0 0.498039 0.498039 0 
0.2 0.8 0 0.2 0.8 0 
0.498039 0.498039 0 0.498039 0.498039 0 
0.0470588 0.94902 0 0.4 0.6 0 
0.14902 0.847059 0 0.34902 0.647059 0 
0.4 0.6 0 0.447059 0.54902 0 
0.34902 0.647059 0 0.4 0.6 0 
0.4 0.6 0 0.498039 0.498039 0 
0.4 0.6 0 0.298039 0.698039 0 
0.0980392 0.898039 0 0.498039 0.498039 0 
0.0980392 0.898039 0 0.298039 0.698039 0 
0.447059 0.54902 0 0 1 0 
0.247059 0.74902 0 0.4 0.6 0 
0.4 0.6 0 0.447059 0.54902 0 
0.0980392 0.898039 0 0.34902 0.647059 0 
0.34902 0.647059 0 0.0980392 0.898039 0 
0.4 0.6 0 0.4 0.6 0 
0.2 0.8 0 0.4 0.6 0 
0.4 0.6 0 0 1 0 
0.247059 0.74902 0 0.0470588 0.94902 0 
0.0470588 0.94902 0 0.447059 0.54902 0 
0.4 0.6 0 0.298039 0.698039 0 
0.4 0.6 0 0.447059 0.54902 0 
0.298039 0.698039 0 0.4 0.6 0 
0.498039 0.498039 0 0.0980392 0.898039 0 
0.34902 0.647059 0 0.0980392 0.898039 0 
0.4 0.6 0 0.498039 0.498039 0 
0.4 0.6 0 0.4 0.6 0 
0.4 0.6 0 0.2 0.8 0 
0 1 0 0.4 0.6 0 
0.247059 0.74902 0 0 1 0 
0.4 0.6 0 0.2 0.8 0 
0.34902 0.647059 0 0.0470588 0.94902 0 
0.447059 0.54902 0 0.4 0.6 0 
0.247059 0.74902 0 0.447059 0.54902 0 
0.298039 0.698039 0 0 1 0 
0.0980392 0.898039 0 0.34902 0.647059 0 
0 1 0 0.2 0.8 0 
0.6 0.4 0 0.0470588 0.94902 0 
0.298039 0.698039 0 0.4 0.6 0 
0.0470588 0.94902 0 0.6 0.4 0 
0.34902 0.647059 0 0.0980392 0.898039 0 
0.2 0.8 0 0.4 0.6 0 
0.4 0.6 0 0 1 0 
0 1 0 0.498039 0.498039 0 
0.447059 0.54902 0 0.2 0.8 0 
0.298039 0.698039 0 0.0470588 0.94902 0 
0.34902 0.647059 0 0.4 0.6 0 
0.498039 0.498039 0 0.0980392 0.898039 0 
0.4 0.6 0 0.247059 0.74902 0 
0.0980392 0.898039 0 0.4 0.6 0 
0.0980392 0.898039 0 0.898039 0.0980392 0 
0.498039 0.498039 0 0.847059 0.14902 0 
0.4 0.6 0 0.0470588 0.94902 0 
0.94902 0.0470588 0 0.898039 0.0980392 0 
0.0980392 0.898039 0 0.4 0.6 0 
0.0980392 0.898039 0 0.94902 0.0470588 0 
0.2 0.8 0 0.4 0.6 0 
0.0980392 0.898039 0 0.898039 0.0980392 0 
0.898039 0.0980392 0 0.898039 0.0980392 0 
0.14902 0.847059 0 0.4 0.6 0 
0.0980392 0.898039 0 0.898039 0.0980392 0 
0.0980392 0.898039 0 0.4 0.6 0 
0.0980392 0.898039 0 0.898039 0.0980392 0 
0.247059 0.74902 0 0.4 0.6 0 
0.0980392 0.898039 0 0.898039 0.0980392 0 
0.247059 0.74902 0 0.4 0.6 0 
0.0980392 0.898039 0 0.898039 0.0980392 0 
0.0980392 0.898039 0 0.4 0.6 0 
0.0980392 0.898039 0 0.94902 0.0470588 0 
0.14902 0.847059 0 0.4 0.6 0 
0.0980392 0.898039 0 0.898039 0.0980392 0 
0.0980392 0.898039 0 0.4 0.6 0 
0.0980392 0.898039 0 0.898039 0.0980392 0 
0.0980392 0.898039 0 0.0980392 0.898039 0 
0.0980392 0.898039 0 0.2 0.8 0 
0.898039 0.0980392 0 
