# vtk DataFile Version 5.1
vtk output
ASCII
DATASET UNSTRUCTURED_GRID
POINTS 569 float
-0.385972 -0.795324 0 0.204676 -0.795324 0 0.795324 -0.795324 0 
1.38597 -0.795324 0 -0.385972 -0.204676 0 0.204676 -0.204676 0 
0.795324 -0.204676 0 1.38597 -0.204676 0 -0.090648 -0.795324 0 
0.204676 -0.5 0 -0.090648 -0.204676 0 -0.385972 -0.5 0 
-0.090648 -0.5 0 0.5 -0.795324 0 0.795324 -0.5 0 
0.5 -0.204676 0 0.5 -0.5 0 1.09065 -0.795324 0 
1.38597 -0.5 0 1.09065 -0.204676 0 1.09065 -0.5 0 
0.057014 -0.795324 0 0.204676 -0.647662 0 0.057014 -0.5 0 
-0.090648 -0.647662 0 0.057014 -0.647662 0 0.352338 -0.795324 0 
0.5 -0.647662 0 0.352338 -0.5 0 0.352338 -0.647662 0 
0.647662 -0.795324 0 0.795324 -0.647662 0 0.647662 -0.5 0 
0.647662 -0.647662 0 0.795324 -0.352338 0 0.647662 -0.204676 0 
0.5 -0.352338 0 0.647662 -0.352338 0 0.352338 -0.204676 0 
0.204676 -0.352338 0 0.352338 -0.352338 0 0.942986 -0.795324 0 
1.09065 -0.647662 0 0.942986 -0.5 0 0.942986 -0.647662 0 
0.130845 -0.795324 0 0.204676 -0.721493 0 0.130845 -0.647662 0 
0.057014 -0.721493 0 0.130845 -0.721493 0 0.278507 -0.795324 0 
0.352338 -0.721493 0 0.278507 -0.647662 0 0.278507 -0.721493 0 
0.426169 -0.795324 0 0.5 -0.721493 0 0.426169 -0.647662 0 
0.426169 -0.721493 0 0.5 -0.573831 0 0.426169 -0.5 0 
0.352338 -0.573831 0 0.426169 -0.573831 0 0.278507 -0.5 0 
0.204676 -0.573831 0 0.278507 -0.573831 0 0.573831 -0.795324 0 
0.647662 -0.721493 0 0.573831 -0.647662 0 0.573831 -0.721493 0 
0.721493 -0.795324 0 0.795324 -0.721493 0 0.721493 -0.647662 0 
0.721493 -0.721493 0 0.795324 -0.573831 0 0.721493 -0.5 0 
0.647662 -0.573831 0 0.721493 -0.573831 0 0.573831 -0.5 0 
0.573831 -0.573831 0 0.647662 -0.426169 0 0.573831 -0.352338 0 
0.5 -0.426169 0 0.573831 -0.426169 0 0.647662 -0.278507 0 
0.573831 -0.204676 0 0.5 -0.278507 0 0.573831 -0.278507 0 
0.426169 -0.352338 0 0.352338 -0.426169 0 0.426169 -0.426169 0 
0.426169 -0.204676 0 0.352338 -0.278507 0 0.426169 -0.278507 0 
0.869155 -0.795324 0 0.942986 -0.721493 0 0.869155 -0.647662 0 
0.869155 -0.721493 0 0.167761 -0.795324 0 0.204676 -0.758408 0 
0.167761 -0.721493 0 0.130845 -0.758408 0 0.167761 -0.758408 0 
0.241591 -0.795324 0 0.278507 -0.758408 0 0.241591 -0.721493 0 
0.241591 -0.758408 0 0.315423 -0.795324 0 0.352338 -0.758408 0 
0.315423 -0.721493 0 0.315423 -0.758408 0 0.352338 -0.684578 0 
0.315423 -0.647662 0 0.278507 -0.684578 0 0.315423 -0.684578 0 
0.241591 -0.647662 0 0.204676 -0.684578 0 0.241591 -0.684578 0 
0.389253 -0.795324 0 0.426169 -0.758408 0 0.389253 -0.721493 0 
0.389253 -0.758408 0 0.389253 -0.647662 0 0.426169 -0.610747 0 
0.389253 -0.573831 0 0.352338 -0.610747 0 0.389253 -0.610747 0 
0.463084 -0.647662 0 0.5 -0.610747 0 0.463084 -0.573831 0 
0.463084 -0.610747 0 0.5 -0.536915 0 0.463084 -0.5 0 
0.426169 -0.536915 0 0.463084 -0.536915 0 0.389253 -0.5 0 
0.352338 -0.536915 0 0.389253 -0.536915 0 0.315423 -0.573831 0 
0.278507 -0.610747 0 0.315423 -0.610747 0 0.315423 -0.5 0 
0.278507 -0.536915 0 0.315423 -0.536915 0 0.610747 -0.795324 0 
0.647662 -0.758408 0 0.610747 -0.721493 0 0.573831 -0.758408 0 
0.610747 -0.758408 0 0.647662 -0.684578 0 0.610747 -0.647662 0 
0.573831 -0.684578 0 0.610747 -0.684578 0 0.684578 -0.795324 0 
0.721493 -0.758408 0 0.684578 -0.721493 0 0.684578 -0.758408 0 
0.758408 -0.795324 0 0.795324 -0.758408 0 0.758408 -0.721493 0 
0.758408 -0.758408 0 0.795324 -0.684578 0 0.758408 -0.647662 0 
0.721493 -0.684578 0 0.758408 -0.684578 0 0.684578 -0.647662 0 
0.684578 -0.684578 0 0.721493 -0.610747 0 0.684578 -0.573831 0 
0.647662 -0.610747 0 0.684578 -0.610747 0 0.721493 -0.536915 0 
0.684578 -0.5 0 0.647662 -0.536915 0 0.684578 -0.536915 0 
0.536915 -0.647662 0 0.573831 -0.610747 0 0.536915 -0.573831 0 
0.536915 -0.610747 0 0.610747 -0.573831 0 0.610747 -0.610747 0 
0.610747 -0.5 0 0.573831 -0.536915 0 0.610747 -0.536915 0 
0.536915 -0.5 0 0.536915 -0.536915 0 0.573831 -0.463084 0 
0.536915 -0.426169 0 0.5 -0.463084 0 0.536915 -0.463084 0 
0.647662 -0.463084 0 0.610747 -0.426169 0 0.610747 -0.463084 0 
0.647662 -0.389253 0 0.610747 -0.352338 0 0.573831 -0.389253 0 
0.610747 -0.389253 0 0.536915 -0.352338 0 0.5 -0.389253 0 
0.536915 -0.389253 0 0.573831 -0.315423 0 0.536915 -0.278507 0 
0.5 -0.315423 0 0.536915 -0.315423 0 0.573831 -0.241591 0 
0.536915 -0.204676 0 0.5 -0.241591 0 0.536915 -0.241591 0 
0.426169 -0.463084 0 0.389253 -0.426169 0 0.352338 -0.463084 0 
0.389253 -0.463084 0 0.463084 -0.426169 0 0.463084 -0.463084 0 
0.463084 -0.352338 0 0.426169 -0.389253 0 0.463084 -0.389253 0 
0.389253 -0.352338 0 0.352338 -0.389253 0 0.389253 -0.389253 0 
0.463084 -0.278507 0 0.426169 -0.315423 0 0.463084 -0.315423 0 
0.463084 -0.204676 0 0.426169 -0.241591 0 0.463084 -0.241591 0 
0.83224 -0.795324 0 0.869155 -0.758408 0 0.83224 -0.721493 0 
0.83224 -0.758408 0 0.186218 -0.795324 0 0.204676 -0.776866 0 
0.186218 -0.758408 0 0.167761 -0.776866 0 0.186218 -0.776866 0 
0.223134 -0.795324 0 0.241591 -0.776866 0 0.223134 -0.758408 0 
0.223134 -0.776866 0 0.260049 -0.795324 0 0.278507 -0.776866 0 
0.260049 -0.758408 0 0.260049 -0.776866 0 0.278507 -0.739951 0 
0.260049 -0.721493 0 0.241591 -0.739951 0 0.260049 -0.739951 0 
0.296965 -0.795324 0 0.315423 -0.776866 0 0.296965 -0.758408 0 
0.296965 -0.776866 0 0.33388 -0.795324 0 0.352338 -0.776866 0 
0.33388 -0.758408 0 0.33388 -0.776866 0 0.352338 -0.739951 0 
0.33388 -0.721493 0 0.315423 -0.739951 0 0.33388 -0.739951 0 
0.296965 -0.721493 0 0.296965 -0.739951 0 0.315423 -0.703035 0 
0.296965 -0.684578 0 0.278507 -0.703035 0 0.296965 -0.703035 0 
0.352338 -0.703035 0 0.33388 -0.684578 0 0.33388 -0.703035 0 
0.352338 -0.66612 0 0.33388 -0.647662 0 0.315423 -0.66612 0 
0.33388 -0.66612 0 0.296965 -0.647662 0 0.278507 -0.66612 0 
0.296965 -0.66612 0 0.260049 -0.684578 0 0.241591 -0.703035 0 
0.260049 -0.703035 0 0.370796 -0.795324 0 0.389253 -0.776866 0 
0.370796 -0.758408 0 0.370796 -0.776866 0 0.370796 -0.647662 0 
0.389253 -0.629204 0 0.370796 -0.610747 0 0.352338 -0.629204 0 
0.370796 -0.629204 0 0.407711 -0.610747 0 0.426169 -0.592289 0 
0.407711 -0.573831 0 0.389253 -0.592289 0 0.407711 -0.592289 0 
0.370796 -0.573831 0 0.352338 -0.592289 0 0.370796 -0.592289 0 
0.481542 -0.610747 0 0.5 -0.592289 0 0.481542 -0.573831 0 
0.463084 -0.592289 0 0.481542 -0.592289 0 0.444627 -0.610747 0 
0.444627 -0.573831 0 0.444627 -0.592289 0 0.463084 -0.555373 0 
0.444627 -0.536915 0 0.426169 -0.555373 0 0.444627 -0.555373 0 
0.5 -0.555373 0 0.481542 -0.536915 0 0.481542 -0.555373 0 
0.389253 -0.555373 0 0.370796 -0.536915 0 0.352338 -0.555373 0 
0.370796 -0.555373 0 0.407711 -0.536915 0 0.407711 -0.555373 0 
0.426169 -0.518458 0 0.407711 -0.5 0 0.389253 -0.518458 0 
0.407711 -0.518458 0 0.370796 -0.5 0 0.352338 -0.518458 0 
0.370796 -0.518458 0 0.315423 -0.629204 0 0.296965 -0.610747 0 
0.278507 -0.629204 0 0.296965 -0.629204 0 0.33388 -0.610747 0 
0.33388 -0.629204 0 0.33388 -0.573831 0 0.315423 -0.592289 0 
0.33388 -0.592289 0 0.33388 -0.536915 0 0.315423 -0.555373 0 
0.33388 -0.555373 0 0.33388 -0.5 0 0.315423 -0.518458 0 
0.33388 -0.518458 0 0.592289 -0.795324 0 0.610747 -0.776866 0 
0.592289 -0.758408 0 0.573831 -0.776866 0 0.592289 -0.776866 0 
0.629204 -0.795324 0 0.647662 -0.776866 0 0.629204 -0.758408 0 
0.629204 -0.776866 0 0.647662 -0.739951 0 0.629204 -0.721493 0 
0.610747 -0.739951 0 0.629204 -0.739951 0 0.647662 -0.703035 0 
0.629204 -0.684578 0 0.610747 -0.703035 0 0.629204 -0.703035 0 
0.647662 -0.66612 0 0.629204 -0.647662 0 0.610747 -0.66612 0 
0.629204 -0.66612 0 0.592289 -0.684578 0 0.592289 -0.647662 0 
0.573831 -0.66612 0 0.592289 -0.66612 0 0.66612 -0.795324 0 
0.684578 -0.776866 0 0.66612 -0.758408 0 0.66612 -0.776866 0 
0.703035 -0.795324 0 0.721493 -0.776866 0 0.703035 -0.758408 0 
0.703035 -0.776866 0 0.739951 -0.795324 0 0.758408 -0.776866 0 
0.739951 -0.758408 0 0.739951 -0.776866 0 0.776866 -0.795324 0 
0.795324 -0.776866 0 0.776866 -0.758408 0 0.776866 -0.776866 0 
0.758408 -0.739951 0 0.739951 -0.721493 0 0.721493 -0.739951 0 
0.739951 -0.739951 0 0.758408 -0.703035 0 0.739951 -0.684578 0 
0.721493 -0.703035 0 0.739951 -0.703035 0 0.703035 -0.721493 0 
0.703035 -0.684578 0 0.684578 -0.703035 0 0.703035 -0.703035 0 
0.721493 -0.66612 0 0.703035 -0.647662 0 0.684578 -0.66612 0 
0.703035 -0.66612 0 0.66612 -0.647662 0 0.684578 -0.629204 0 
0.66612 -0.610747 0 0.647662 -0.629204 0 0.66612 -0.629204 0 
0.721493 -0.629204 0 0.703035 -0.610747 0 0.703035 -0.629204 0 
0.684578 -0.592289 0 0.66612 -0.573831 0 0.647662 -0.592289 0 
0.66612 -0.592289 0 0.684578 -0.555373 0 0.66612 -0.536915 0 
0.647662 -0.555373 0 0.66612 -0.555373 0 0.684578 -0.518458 0 
0.66612 -0.5 0 0.647662 -0.518458 0 0.66612 -0.518458 0 
0.555373 -0.610747 0 0.573831 -0.592289 0 0.555373 -0.573831 0 
0.536915 -0.592289 0 0.555373 -0.592289 0 0.518458 -0.610747 0 
0.518458 -0.573831 0 0.518458 -0.592289 0 0.610747 -0.629204 0 
0.592289 -0.610747 0 0.573831 -0.629204 0 0.592289 -0.629204 0 
0.610747 -0.592289 0 0.592289 -0.573831 0 0.592289 -0.592289 0 
0.610747 -0.555373 0 0.592289 -0.536915 0 0.573831 -0.555373 0 
0.592289 -0.555373 0 0.629204 -0.536915 0 0.629204 -0.5 0 
0.610747 -0.518458 0 0.629204 -0.518458 0 0.536915 -0.555373 0 
0.518458 -0.536915 0 0.518458 -0.555373 0 0.555373 -0.536915 0 
0.555373 -0.555373 0 0.573831 -0.518458 0 0.555373 -0.5 0 
0.536915 -0.518458 0 0.555373 -0.518458 0 0.518458 -0.5 0 
0.536915 -0.481542 0 0.518458 -0.463084 0 0.5 -0.481542 0 
0.518458 -0.481542 0 0.573831 -0.481542 0 0.555373 -0.463084 0 
0.555373 -0.481542 0 0.536915 -0.444627 0 0.518458 -0.426169 0 
0.5 -0.444627 0 0.518458 -0.444627 0 0.647662 -0.481542 0 
0.629204 -0.463084 0 0.610747 -0.481542 0 0.629204 -0.481542 0 
0.647662 -0.444627 0 0.629204 -0.426169 0 0.610747 -0.444627 0 
0.629204 -0.444627 0 0.592289 -0.463084 0 0.592289 -0.426169 0 
0.573831 -0.444627 0 0.592289 -0.444627 0 0.610747 -0.407711 0 
0.592289 -0.389253 0 0.573831 -0.407711 0 0.592289 -0.407711 0 
0.610747 -0.370796 0 0.592289 -0.352338 0 0.573831 -0.370796 0 
0.592289 -0.370796 0 0.536915 -0.407711 0 0.518458 -0.389253 0 
0.5 -0.407711 0 0.518458 -0.407711 0 0.555373 -0.389253 0 
0.555373 -0.352338 0 0.536915 -0.370796 0 0.555373 -0.370796 0 
0.573831 -0.33388 0 0.555373 -0.315423 0 0.536915 -0.33388 0 
0.555373 -0.33388 0 0.573831 -0.296965 0 0.555373 -0.278507 0 
0.536915 -0.296965 0 0.555373 -0.296965 0 0.518458 -0.315423 0 
0.518458 -0.278507 0 0.5 -0.296965 0 0.518458 -0.296965 0 
0.536915 -0.260049 0 0.518458 -0.241591 0 0.5 -0.260049 0 
0.518458 -0.260049 0 0.536915 -0.223134 0 0.518458 -0.204676 0 
0.5 -0.223134 0 0.518458 -0.223134 0 0.389253 -0.481542 0 
0.370796 -0.463084 0 0.352338 -0.481542 0 0.370796 -0.481542 0 
0.426169 -0.481542 0 0.407711 -0.463084 0 0.407711 -0.481542 0 
0.426169 -0.444627 0 0.407711 -0.426169 0 0.389253 -0.444627 0 
0.407711 -0.444627 0 0.370796 -0.426169 0 0.352338 -0.444627 0 
0.370796 -0.444627 0 0.444627 -0.463084 0 0.463084 -0.444627 0 
0.444627 -0.426169 0 0.444627 -0.444627 0 0.463084 -0.407711 0 
0.444627 -0.389253 0 0.426169 -0.407711 0 0.444627 -0.407711 0 
0.481542 -0.426169 0 0.481542 -0.389253 0 0.481542 -0.407711 0 
0.5 -0.370796 0 0.481542 -0.352338 0 0.463084 -0.370796 0 
0.481542 -0.370796 0 0.444627 -0.352338 0 0.426169 -0.370796 0 
0.444627 -0.370796 0 0.407711 -0.389253 0 0.389253 -0.407711 0 
0.407711 -0.407711 0 0.407711 -0.352338 0 0.389253 -0.370796 0 
0.407711 -0.370796 0 0.463084 -0.33388 0 0.444627 -0.315423 0 
0.426169 -0.33388 0 0.444627 -0.33388 0 0.5 -0.33388 0 
0.481542 -0.315423 0 0.481542 -0.33388 0 0.463084 -0.296965 0 
0.444627 -0.278507 0 0.426169 -0.296965 0 0.444627 -0.296965 0 
0.463084 -0.260049 0 0.444627 -0.241591 0 0.426169 -0.260049 0 
0.444627 -0.260049 0 0.481542 -0.278507 0 0.481542 -0.241591 0 
0.481542 -0.260049 0 0.481542 -0.204676 0 0.463084 -0.223134 0 
0.481542 -0.223134 0 0.813782 -0.795324 0 0.83224 -0.776866 0 
0.813782 -0.758408 0 0.813782 -0.776866 0 
CELLS 344 1334
OFFSETS vtktypeint64
0 4 8 12 16 20 24 28 32 
36 40 44 48 52 56 60 64 68 
72 76 80 84 88 92 96 100 104 
108 112 116 120 124 128 132 136 140 
144 148 152 156 160 164 168 172 176 
180 184 188 192 196 200 204 208 212 
216 220 224 228 232 236 240 244 248 
252 256 260 264 268 272 276 280 284 
288 292 296 300 304 308 312 316 320 
324 328 332 336 340 344 348 352 356 
360 364 368 372 376 380 384 388 392 
396 400 404 408 412 416 420 424 428 
432 436 440 444 448 452 456 460 464 
468 472 476 480 484 488 492 496 500 
504 508 512 516 520 524 528 532 536 
540 544 548 552 556 560 564 568 572 
576 580 584 588 592 596 600 604 608 
612 616 620 624 628 632 636 640 644 
648 652 656 660 664 668 672 676 680 
684 688 692 696 700 704 708 712 716 
720 724 728 732 736 740 744 748 752 
756 760 764 768 772 776 780 784 788 
792 796 800 804 808 812 816 820 824 
828 832 836 840 844 848 852 856 860 
864 868 872 876 880 884 888 892 896 
900 904 908 912 916 920 924 928 932 
936 940 944 948 952 956 960 964 968 
972 976 980 984 988 992 996 1000 1004 
1008 1012 1016 1020 1024 1028 1032 1036 1040 
1044 1048 1052 1056 1060 1064 1068 1072 1076 
1080 1084 1088 1092 1096 1100 1104 1108 1112 
1116 1120 1124 1128 1132 1136 1140 1144 1148 
1152 1156 1160 1163 1166 1169 1173 1176 1179 
1182 1185 1189 1193 1196 1199 1202 1206 1209 
1212 1215 1219 1223 1227 1230 1233 1236 1240 
1243 1246 1249 1253 1256 1259 1262 1266 1269 
1272 1275 1279 1282 1285 1288 1292 1295 1298 
1301 1305 1308 1311 1314 1318 1321 1324 1327 
1330 1334 
CONNECTIVITY vtktypeint64
229 1 230 233 233 230 98 231 1 
234 237 230 234 102 235 237 237 235 
105 236 230 237 236 98 102 238 241 
235 238 50 239 241 241 239 103 240 
235 241 240 105 105 240 245 244 240 
103 242 245 245 242 53 243 244 245 
243 104 50 246 249 239 246 106 247 
249 249 247 109 248 239 249 248 103 
106 250 253 247 250 26 251 253 253 
251 107 252 247 253 252 109 109 252 
257 256 256 257 255 108 103 248 259 
242 248 109 256 259 259 256 108 258 
242 259 258 53 53 258 263 262 258 
108 260 263 263 260 113 261 262 263 
261 112 108 255 266 260 260 266 265 
113 113 265 270 269 265 110 267 270 
270 267 29 268 269 270 268 111 112 
261 273 272 261 113 269 273 273 269 
111 271 272 273 271 52 243 53 262 
276 276 262 112 274 26 277 280 251 
277 117 278 280 280 278 120 279 251 
280 279 107 284 285 283 124 125 286 
290 289 286 122 287 290 290 287 61 
288 289 290 288 123 124 283 293 292 
283 125 289 293 293 289 123 291 292 
293 291 60 129 294 298 297 294 127 
295 298 298 295 58 296 297 298 296 
128 122 299 301 287 299 129 297 301 
301 297 128 300 287 301 300 61 61 
300 305 304 300 128 302 305 128 296 
308 302 296 58 306 308 60 291 312 
311 291 123 309 312 312 309 136 310 
311 312 310 135 123 288 314 309 288 
61 304 314 136 313 318 317 317 318 
316 134 135 310 321 320 310 136 317 
321 321 317 134 319 320 321 319 28 
271 111 322 325 325 322 139 323 111 
268 327 322 268 29 284 327 327 284 
124 326 322 327 326 139 139 326 330 
329 326 124 292 330 330 292 60 328 
329 330 328 137 137 328 333 332 328 
60 311 333 333 311 135 331 331 135 
320 336 65 337 341 340 337 143 338 
341 341 338 147 339 340 341 339 146 
143 342 345 338 342 30 343 345 345 
343 144 344 338 345 344 147 344 144 
346 349 349 346 66 347 145 347 353 
352 347 66 350 353 353 350 148 351 
352 353 351 151 151 351 357 356 351 
148 354 357 357 354 33 355 356 357 
355 149 361 356 149 359 30 362 365 
343 362 152 363 365 365 363 155 364 
343 365 364 144 152 366 369 363 366 
69 367 369 369 367 153 368 363 369 
368 155 69 370 373 367 370 156 371 
373 373 371 159 372 367 373 372 153 
156 374 377 371 374 2 375 377 377 
375 157 376 371 377 376 159 153 372 
381 380 372 159 378 381 381 378 158 
379 380 381 379 72 72 379 385 384 
384 385 383 162 154 386 389 388 386 
72 384 389 389 384 162 387 388 389 
387 165 165 387 393 392 387 162 390 
393 393 390 71 391 392 393 391 164 
33 394 398 397 394 164 395 398 398 
395 169 396 397 398 396 168 164 391 
401 395 395 401 400 169 168 396 405 
404 396 169 402 405 405 402 167 403 
404 405 403 75 75 403 409 408 403 
167 406 409 408 409 407 172 172 407 
413 412 177 414 418 417 414 175 415 
418 418 415 78 416 417 418 416 176 
127 419 421 295 419 177 417 421 421 
417 176 420 295 421 420 58 359 149 
422 425 425 422 179 423 424 425 423 
175 175 423 428 415 423 179 426 428 
428 426 178 427 415 428 427 78 78 
427 432 431 427 178 429 432 432 429 
182 430 431 432 430 181 182 433 436 
435 433 172 412 436 436 412 32 434 
435 436 434 180 58 420 439 306 420 
176 437 439 176 416 441 437 416 78 
431 441 441 431 181 440 184 440 445 
444 440 181 442 445 445 442 77 443 
444 445 443 183 450 447 188 448 183 
443 453 447 443 77 451 453 453 451 
185 452 447 453 452 188 448 188 454 
457 457 454 186 455 456 457 455 81 
180 434 461 460 434 32 458 461 460 
461 459 191 191 459 465 464 185 466 
469 468 466 191 464 469 469 464 190 
467 468 469 467 82 82 467 473 472 
467 190 470 473 473 470 195 471 472 
473 471 194 194 471 477 476 476 477 
475 80 81 455 481 480 455 186 478 
481 481 478 198 479 480 481 479 197 
198 482 485 484 482 194 476 485 485 
476 80 483 484 485 483 196 196 483 
489 488 483 80 486 489 489 486 199 
487 488 489 487 202 202 487 493 492 
492 493 491 200 201 494 497 496 494 
202 492 497 497 492 200 495 496 497 
495 85 85 495 501 500 495 200 498 
501 501 498 206 499 500 501 499 205 
205 499 505 504 499 206 502 505 504 
505 503 15 28 319 509 508 319 134 
506 509 509 506 210 507 134 316 512 
506 316 59 510 512 512 510 207 511 
506 512 511 210 210 511 516 515 511 
207 513 516 516 513 89 514 515 516 
514 208 507 210 515 519 519 515 208 
517 207 520 523 513 513 523 522 89 
89 522 527 526 527 524 215 525 526 
527 525 214 530 480 197 529 529 197 
531 534 534 531 36 532 533 534 532 
213 214 525 537 536 525 215 533 537 
537 533 213 535 536 537 535 87 208 
514 540 539 514 89 526 540 540 526 
214 538 539 540 538 218 538 214 536 
543 543 536 87 541 87 535 547 546 
535 213 544 547 547 544 221 545 546 
547 545 220 213 532 550 544 532 36 
548 550 550 548 201 549 544 550 549 
221 220 545 554 553 545 221 551 554 
554 551 219 552 552 219 555 558 219 
559 561 555 559 85 500 561 561 500 
205 560 555 561 560 224 224 560 564 
563 560 205 504 564 564 504 15 562 
2 565 568 375 375 568 567 157 153 
380 368 380 386 368 380 72 386 368 
386 154 155 66 346 154 346 364 154 
364 155 154 346 144 364 154 388 350 
66 388 165 148 350 164 394 392 394 
354 392 394 33 354 392 354 148 165 
149 355 422 355 397 422 355 33 397 
422 397 168 179 168 404 426 179 404 
75 178 426 172 433 408 433 429 408 
433 182 429 408 429 178 75 181 430 
442 430 435 442 430 182 435 442 435 
180 77 188 452 454 452 468 454 452 
185 468 454 468 82 186 191 466 460 
466 451 460 466 185 451 460 451 77 
180 194 482 472 482 478 472 482 198 
478 472 478 186 82 197 479 531 479 
484 531 479 198 484 531 484 196 36 
202 494 488 494 548 488 494 201 548 
488 548 36 196 551 221 549 549 201 
496 496 85 559 559 219 551 549 496 
559 551 
CELL_TYPES 343
9
9
9
9
9
9
9
9
9
9
9
9
9
9
9
9
9
9
9
9
9
9
9
9
9
9
9
9
9
9
9
9
9
9
9
9
9
9
9
9
9
9
9
9
9
9
9
9
9
9
9
9
9
9
9
9
9
9
9
9
9
9
9
9
9
9
9
9
9
9
9
9
9
9
9
9
9
9
9
9
9
9
9
9
9
9
9
9
9
9
9
9
9
9
9
9
9
9
9
9
9
9
9
9
9
9
9
9
9
9
9
9
9
9
9
9
9
9
9
9
9
9
9
9
9
9
9
9
9
9
9
9
9
9
9
9
9
9
9
9
9
9
9
9
9
9
9
9
9
9
9
9
9
9
9
9
9
9
9
9
9
9
9
9
9
9
9
9
9
9
9
9
9
9
9
9
9
9
9
9
9
9
9
9
9
9
9
9
9
9
9
9
9
9
9
9
9
9
9
9
9
9
9
9
9
9
9
9
9
9
9
9
9
9
9
9
9
9
9
9
9
9
9
9
9
9
9
9
9
9
9
9
9
9
9
9
9
9
9
9
9
9
9
9
9
9
9
9
9
9
9
9
9
9
9
9
9
9
9
9
9
9
9
9
9
9
9
9
9
9
9
9
9
9
9
9
9
9
9
9
9
9
9
9
9
9
9
9
9
9
5
5
5
9
5
5
5
5
9
9
5
5
5
9
5
5
5
9
9
9
5
5
5
9
5
5
5
9
5
5
5
9
5
5
5
9
5
5
5
9
5
5
5
9
5
5
5
9
5
5
5
5
9

CELL_DATA 343
COLOR_SCALARS CellColors 3
0.913725 0 0.0823529 0.913725 0 0.0823529 0.913725 0 0.0823529 
0.913725 0 0.0823529 0.913725 0 0.0823529 
0.913725 0 0.0823529 0.913725 0 0.0823529 
0.913725 0 0.0823529 0.913725 0 0.0823529 
0.913725 0 0.0823529 0.913725 0 0.0823529 
0.913725 0 0.0823529 0.913725 0 0.0823529 
0.913725 0 0.0823529 0.913725 0 0.0823529 
0.913725 0 0.0823529 0.913725 0 0.0823529 
0.913725 0 0.0823529 0.913725 0 0.0823529 
0.913725 0 0.0823529 0.913725 0 0.0823529 
0.913725 0 0.0823529 0.913725 0 0.0823529 
0.913725 0 0.0823529 0.913725 0 0.0823529 
0.913725 0 0.0823529 0.913725 0 0.0823529 
0.913725 0 0.0823529 0.913725 0 0.0823529 
0.913725 0 0.0823529 0.913725 0 0.0823529 
0.913725 0 0.0823529 0.913725 0 0.0823529 
0.913725 0 0.0823529 0.913725 0 0.0823529 
0.913725 0 0.0823529 0.913725 0 0.0823529 
0.913725 0 0.0823529 0.913725 0 0.0823529 
0.913725 0 0.0823529 0.913725 0 0.0823529 
0.913725 0 0.0823529 0.913725 0 0.0823529 
0.913725 0 0.0823529 0.913725 0 0.0823529 
0.913725 0 0.0823529 0.913725 0 0.0823529 
0.913725 0 0.0823529 0.913725 0 0.0823529 
0.913725 0 0.0823529 0.913725 0 0.0823529 
0.913725 0 0.0823529 0.913725 0 0.0823529 
0.913725 0 0.0823529 0.913725 0 0.0823529 
0.913725 0 0.0823529 0.913725 0 0.0823529 
0.913725 0 0.0823529 0.913725 0 0.0823529 
0.913725 0 0.0823529 0.913725 0 0.0823529 
0.913725 0 0.0823529 0.913725 0 0.0823529 
0.913725 0 0.0823529 0.913725 0 0.0823529 
0.913725 0 0.0823529 0.913725 0 0.0823529 
0.913725 0 0.0823529 0.913725 0 0.0823529 
0.913725 0 0.0823529 0.913725 0 0.0823529 
0.913725 0 0.0823529 0.913725 0 0.0823529 
0.913725 0 0.0823529 0.913725 0 0.0823529 
0.913725 0 0.0823529 0.913725 0 0.0823529 
0.913725 0 0.0823529 0.913725 0 0.0823529 
0.913725 0 0.0823529 0.913725 0 0.0823529 
0.913725 0 0.0823529 0.913725 0 0.0823529 
0.913725 0 0.0823529 0.913725 0 0.0823529 
0.913725 0 0.0823529 0.913725 0 0.0823529 
0.913725 0 0.0823529 0.913725 0 0.0823529 
0.913725 0 0.0823529 0.913725 0 0.0823529 
0.913725 0 0.0823529 0.913725 0 0.0823529 
0.913725 0 0.0823529 0.913725 0 0.0823529 
0.913725 0 0.0823529 0.913725 0 0.0823529 
0.913725 0 0.0823529 0.913725 0 0.0823529 
0.913725 0 0.0823529 0.913725 0 0.0823529 
0.913725 0 0.0823529 0.913725 0 0.0823529 
0.913725 0 0.0823529 0.913725 0 0.0823529 
0.913725 0 0.0823529 0.913725 0 0.0823529 
0.913725 0 0.0823529 0.913725 0 0.0823529 
0.913725 0 0.0823529 0.913725 0 0.0823529 
0.913725 0 0.0823529 0.913725 0 0.0823529 
0.913725 0 0.0823529 0.913725 0 0.0823529 
0.913725 0 0.0823529 0.913725 0 0.0823529 
0.913725 0 0.0823529 0.913725 0 0.0823529 
0.913725 0 0.0823529 0.913725 0 0.0823529 
0.913725 0 0.0823529 0.913725 0 0.0823529 
0.913725 0 0.0823529 0.913725 0 0.0823529 
0.913725 0 0.0823529 0.913725 0 0.0823529 
0.913725 0 0.0823529 0.913725 0 0.0823529 
0.913725 0 0.0823529 0.913725 0 0.0823529 
0.913725 0 0.0823529 0.913725 0 0.0823529 
0.913725 0 0.0823529 0.913725 0 0.0823529 
0.913725 0 0.0823529 0.913725 0 0.0823529 
0.913725 0 0.0823529 0.913725 0 0.0823529 
0.913725 0 0.0823529 0.913725 0 0.0823529 
0.913725 0 0.0823529 0.913725 0 0.0823529 
0.913725 0 0.0823529 0.913725 0 0.0823529 
0.913725 0 0.0823529 0.913725 0 0.0823529 
0.913725 0 0.0823529 0.913725 0 0.0823529 
0.913725 0 0.0823529 0.913725 0 0.0823529 
0.913725 0 0.0823529 0.913725 0 0.0823529 
0.913725 0 0.0823529 0.913725 0 0.0823529 
0.913725 0 0.0823529 0.913725 0 0.0823529 
0.913725 0 0.0823529 0.913725 0 0.0823529 
0.913725 0 0.0823529 0.913725 0 0.0823529 
0.913725 0 0.0823529 0.913725 0 0.0823529 
0.913725 0 0.0823529 0.913725 0 0.0823529 
0.913725 0 0.0823529 0.913725 0 0.0823529 
0.913725 0 0.0823529 0.913725 0 0.0823529 
0.913725 0 0.0823529 0.913725 0 0.0823529 
0.913725 0 0.0823529 0.913725 0 0.0823529 
0.913725 0 0.0823529 0.913725 0 0.0823529 
0.913725 0 0.0823529 0.913725 0 0.0823529 
0.913725 0 0.0823529 0.913725 0 0.0823529 
0.913725 0 0.0823529 0.913725 0 0.0823529 
0.913725 0 0.0823529 0.913725 0 0.0823529 
0.913725 0 0.0823529 0.913725 0 0.0823529 
0.913725 0 0.0823529 0.913725 0 0.0823529 
0.913725 0 0.0823529 0.913725 0 0.0823529 
0.913725 0 0.0823529 0.913725 0 0.0823529 
0.913725 0 0.0823529 0.913725 0 0.0823529 
0.913725 0 0.0823529 0.913725 0 0.0823529 
0.913725 0 0.0823529 0.913725 0 0.0823529 
0.913725 0 0.0823529 0.913725 0 0.0823529 
0.913725 0 0.0823529 0.913725 0 0.0823529 
0.913725 0 0.0823529 0.913725 0 0.0823529 
0.913725 0 0.0823529 0.913725 0 0.0823529 
0.913725 0 0.0823529 0.913725 0 0.0823529 
0.913725 0 0.0823529 0.913725 0 0.0823529 
0.913725 0 0.0823529 0.913725 0 0.0823529 
0.913725 0 0.0823529 0.913725 0 0.0823529 
0.913725 0 0.0823529 0.913725 0 0.0823529 
0.913725 0 0.0823529 0.913725 0 0.0823529 
0.913725 0 0.0823529 0.913725 0 0.0823529 
0.913725 0 0.0823529 0.913725 0 0.0823529 
0.913725 0 0.0823529 0.913725 0 0.0823529 
0.913725 0 0.0823529 0.913725 0 0.0823529 
0.913725 0 0.0823529 0.913725 0 0.0823529 
0.913725 0 0.0823529 0.913725 0 0.0823529 
0.913725 0 0.0823529 0.913725 0 0.0823529 
0.913725 0 0.0823529 0.913725 0 0.0823529 
0.913725 0 0.0823529 0.913725 0 0.0823529 
0.913725 0 0.0823529 0.913725 0 0.0823529 
0.913725 0 0.0823529 0.913725 0 0.0823529 
0.913725 0 0.0823529 0.913725 0 0.0823529 
0.913725 0 0.0823529 0.913725 0 0.0823529 
0.913725 0 0.0823529 0.913725 0 0.0823529 
0.913725 0 0.0823529 0.913725 0 0.0823529 
0.913725 0 0.0823529 0.913725 0 0.0823529 
0.913725 0 0.0823529 0.913725 0 0.0823529 
0.913725 0 0.0823529 0.913725 0 0.0823529 
0.913725 0 0.0823529 0.913725 0 0.0823529 
0.913725 0 0.0823529 0.913725 0 0.0823529 
0.913725 0 0.0823529 0.913725 0 0.0823529 
0.913725 0 0.0823529 0.913725 0 0.0823529 
0.913725 0 0.0823529 0.913725 0 0.0823529 
0.913725 0 0.0823529 0.913725 0 0.0823529 
0.913725 0 0.0823529 0.913725 0 0.0823529 
0.913725 0 0.0823529 0.913725 0 0.0823529 
0.913725 0 0.0823529 0.913725 0 0.0823529 
0.913725 0 0.0823529 0.913725 0 0.0823529 
0.913725 0 0.0823529 0.913725 0 0.0823529 
0.913725 0 0.0823529 0.913725 0 0.0823529 
0.913725 0 0.0823529 0.913725 0 0.0823529 
0.913725 0 0.0823529 0.913725 0 0.0823529 
0.913725 0 0.0823529 0.913725 0 0.0823529 
0.913725 0 0.0823529 0.913725 0 0.0823529 
0.913725 0 0.0823529 0.913725 0 0.0823529 
0.913725 0 0.0823529 0.913725 0 0.0823529 
0.913725 0 0.0823529 0.623529 0 0.376471 
0.623529 0 0.376471 0.623529 0 0.376471 
0.913725 0 0.0823529 0.501961 0 0.501961 
0.541176 0 0.458824 0.501961 0 0.501961 
0.623529 0 0.376471 0.913725 0 0.0823529 
0.913725 0 0.0823529 0.623529 0 0.376471 
0.623529 0 0.376471 0.623529 0 0.376471 
0.913725 0 0.0823529 0.623529 0 0.376471 
0.623529 0 0.376471 0.623529 0 0.376471 
0.913725 0 0.0823529 0.913725 0 0.0823529 
0.913725 0 0.0823529 0.623529 0 0.376471 
0.623529 0 0.376471 0.623529 0 0.376471 
0.913725 0 0.0823529 0.623529 0 0.376471 
0.623529 0 0.376471 0.623529 0 0.376471 
0.913725 0 0.0823529 0.623529 0 0.376471 
0.623529 0 0.376471 0.623529 0 0.376471 
0.913725 0 0.0823529 0.623529 0 0.376471 
0.623529 0 0.376471 0.623529 0 0.376471 
0.913725 0 0.0823529 0.623529 0 0.376471 
0.623529 0 0.376471 0.623529 0 0.376471 
0.913725 0 0.0823529 0.623529 0 0.376471 
0.623529 0 0.376471 0.623529 0 0.376471 
0.913725 0 0.0823529 0.623529 0 0.376471 
0.623529 0 0.376471 0.623529 0 0.376471 
0.913725 0 0.0823529 0.623529 0 0.376471 
0.623529 0 0.376471 0.623529 0 0.376471 
0.623529 0 0.376471 0.913725 0 0.0823529 

