# vtk DataFile Version 2.0
vtk file: 2D Unstructured Grid /mnt/c/Users/aiday/Documents/GitHub/MeshStep/outputs/a_output_3_quads
ASCII

DATASET UNSTRUCTURED_GRID
POINTS 97 float
 -3.85972000E-01 -7.95324000E-01 +0.00000000E+00 +2.04676000E-01 -7.95324000E-01 +0.00000000E+00
 +7.95324000E-01 -7.95324000E-01 +0.00000000E+00 +1.38597200E+00 -7.95324000E-01 +0.00000000E+00
 -3.85972000E-01 -2.04676000E-01 +0.00000000E+00 +2.04676000E-01 -2.04676000E-01 +0.00000000E+00
 +7.95324000E-01 -2.04676000E-01 +0.00000000E+00 +1.38597200E+00 -2.04676000E-01 +0.00000000E+00
 -9.06480000E-02 -7.95324000E-01 +0.00000000E+00 +2.04676000E-01 -5.00000000E-01 +0.00000000E+00
 -9.06480000E-02 -2.04676000E-01 +0.00000000E+00 -3.85972000E-01 -5.00000000E-01 +0.00000000E+00
 -9.06480000E-02 -5.00000000E-01 +0.00000000E+00 +5.00000000E-01 -7.95324000E-01 +0.00000000E+00
 +7.95324000E-01 -5.00000000E-01 +0.00000000E+00 +5.00000000E-01 -2.04676000E-01 +0.00000000E+00
 +5.00000000E-01 -5.00000000E-01 +0.00000000E+00 +1.09064800E+00 -7.95324000E-01 +0.00000000E+00
 +1.38597200E+00 -5.00000000E-01 +0.00000000E+00 +1.09064800E+00 -2.04676000E-01 +0.00000000E+00
 +1.09064800E+00 -5.00000000E-01 +0.00000000E+00 +5.70140000E-02 -7.95324000E-01 +0.00000000E+00
 +2.04676000E-01 -6.47662000E-01 +0.00000000E+00 +5.70140000E-02 -5.00000000E-01 +0.00000000E+00
 -9.06480000E-02 -6.47662000E-01 +0.00000000E+00 +5.70140000E-02 -6.47662000E-01 +0.00000000E+00
 +3.52338000E-01 -7.95324000E-01 +0.00000000E+00 +5.00000000E-01 -6.47662000E-01 +0.00000000E+00
 +3.52338000E-01 -5.00000000E-01 +0.00000000E+00 +3.52338000E-01 -6.47662000E-01 +0.00000000E+00
 +6.47662000E-01 -7.95324000E-01 +0.00000000E+00 +7.95324000E-01 -6.47662000E-01 +0.00000000E+00
 +6.47662000E-01 -5.00000000E-01 +0.00000000E+00 +6.47662000E-01 -6.47662000E-01 +0.00000000E+00
 +7.95324000E-01 -3.52338000E-01 +0.00000000E+00 +6.47662000E-01 -2.04676000E-01 +0.00000000E+00
 +5.00000000E-01 -3.52338000E-01 +0.00000000E+00 +6.47662000E-01 -3.52338000E-01 +0.00000000E+00
 +3.52338000E-01 -2.04676000E-01 +0.00000000E+00 +2.04676000E-01 -3.52338000E-01 +0.00000000E+00
 +3.52338000E-01 -3.52338000E-01 +0.00000000E+00 +9.42986000E-01 -7.95324000E-01 +0.00000000E+00
 +1.09064800E+00 -6.47662000E-01 +0.00000000E+00 +9.42986000E-01 -5.00000000E-01 +0.00000000E+00
 +9.42986000E-01 -6.47662000E-01 +0.00000000E+00 +1.30845000E-01 -7.95324000E-01 +0.00000000E+00
 +2.04676000E-01 -7.21493000E-01 +0.00000000E+00 +1.30845000E-01 -6.47662000E-01 +0.00000000E+00
 +5.70140000E-02 -7.21493000E-01 +0.00000000E+00 +1.30845000E-01 -7.21493000E-01 +0.00000000E+00
 +2.78507000E-01 -7.95324000E-01 +0.00000000E+00 +3.52338000E-01 -7.21493000E-01 +0.00000000E+00
 +2.78507000E-01 -6.47662000E-01 +0.00000000E+00 +2.78507000E-01 -7.21493000E-01 +0.00000000E+00
 +4.26169000E-01 -7.95324000E-01 +0.00000000E+00 +5.00000000E-01 -7.21493000E-01 +0.00000000E+00
 +4.26169000E-01 -6.47662000E-01 +0.00000000E+00 +4.26169000E-01 -7.21493000E-01 +0.00000000E+00
 +5.00000000E-01 -5.73831000E-01 +0.00000000E+00 +4.26169000E-01 -5.00000000E-01 +0.00000000E+00
 +3.52338000E-01 -5.73831000E-01 +0.00000000E+00 +4.26169000E-01 -5.73831000E-01 +0.00000000E+00
 +2.78507000E-01 -5.00000000E-01 +0.00000000E+00 +2.04676000E-01 -5.73831000E-01 +0.00000000E+00
 +2.78507000E-01 -5.73831000E-01 +0.00000000E+00 +5.73831000E-01 -7.95324000E-01 +0.00000000E+00
 +6.47662000E-01 -7.21493000E-01 +0.00000000E+00 +5.73831000E-01 -6.47662000E-01 +0.00000000E+00
 +5.73831000E-01 -7.21493000E-01 +0.00000000E+00 +7.21493000E-01 -7.95324000E-01 +0.00000000E+00
 +7.95324000E-01 -7.21493000E-01 +0.00000000E+00 +7.21493000E-01 -6.47662000E-01 +0.00000000E+00
 +7.21493000E-01 -7.21493000E-01 +0.00000000E+00 +7.95324000E-01 -5.73831000E-01 +0.00000000E+00
 +7.21493000E-01 -5.00000000E-01 +0.00000000E+00 +6.47662000E-01 -5.73831000E-01 +0.00000000E+00
 +7.21493000E-01 -5.73831000E-01 +0.00000000E+00 +5.73831000E-01 -5.00000000E-01 +0.00000000E+00
 +5.73831000E-01 -5.73831000E-01 +0.00000000E+00 +6.47662000E-01 -4.26169000E-01 +0.00000000E+00
 +5.73831000E-01 -3.52338000E-01 +0.00000000E+00 +5.00000000E-01 -4.26169000E-01 +0.00000000E+00
 +5.73831000E-01 -4.26169000E-01 +0.00000000E+00 +6.47662000E-01 -2.78507000E-01 +0.00000000E+00
 +5.73831000E-01 -2.04676000E-01 +0.00000000E+00 +5.00000000E-01 -2.78507000E-01 +0.00000000E+00
 +5.73831000E-01 -2.78507000E-01 +0.00000000E+00 +4.26169000E-01 -3.52338000E-01 +0.00000000E+00
 +3.52338000E-01 -4.26169000E-01 +0.00000000E+00 +4.26169000E-01 -4.26169000E-01 +0.00000000E+00
 +4.26169000E-01 -2.04676000E-01 +0.00000000E+00 +3.52338000E-01 -2.78507000E-01 +0.00000000E+00
 +4.26169000E-01 -2.78507000E-01 +0.00000000E+00 +8.69155000E-01 -7.95324000E-01 +0.00000000E+00
 +9.42986000E-01 -7.21493000E-01 +0.00000000E+00 +8.69155000E-01 -6.47662000E-01 +0.00000000E+00
 +8.69155000E-01 -7.21493000E-01 +0.00000000E+00

CELLS 37 185
4 45 1 46 49
4 1 50 53 46
4 50 26 51 53
4 53 51 29 52
4 46 53 52 22
4 26 54 57 51
4 29 56 61 60
4 56 27 58 61
4 61 58 16 59
4 60 61 59 28
4 52 29 60 64
4 64 60 28 62
4 65 30 66 68
4 68 66 33 67
4 30 69 72 66
4 69 2 70 72
4 72 70 31 71
4 66 72 71 33
4 33 71 76 75
4 75 76 74 32
4 27 67 78 58
4 67 33 75 78
4 78 75 32 77
4 58 78 77 16
4 16 77 82 81
4 77 32 79 82
4 82 79 37 80
4 81 82 80 36
4 36 80 86 85
4 85 86 84 15
4 28 59 89 88
4 59 16 81 89
4 89 81 36 87
4 88 89 87 40
4 87 36 85 92
4 92 85 15 90
4 2 93 96 70

CELL_TYPES 37
 9 9 9 9 9 9 9 9 9 9 9 9 9 9 9 9 9 9 9 9 9 9 9 9 9 9 9 9 9 9
 9 9 9 9 9 9 9
CELL_DATA 37
SCALARS elemType int 1
LOOKUP_TABLE my_color
 1 1 1 1 1 1 1 1 1 1 1 1 1 1 1 1 1 1 1 1 1 1 1 1 1 1 1 1 1 1
 1 1 1 1 1 1 1
LOOKUP_TABLE my_color 2
1.0 0.0 1.0 1.0
0.0 1.0 1.0 1.0
