# vtk DataFile Version 2.0
vtk file: 2D Unstructured Grid /mnt/c/Users/aiday/Documents/GitHub/MeshStep/outputs/a_output_5_quads
ASCII

DATASET UNSTRUCTURED_GRID
POINTS 591 float
 -3.85972000E-01 -7.95324000E-01 +0.00000000E+00 +2.04676000E-01 -7.95324000E-01 +0.00000000E+00
 +7.95324000E-01 -7.95324000E-01 +0.00000000E+00 +1.38597200E+00 -7.95324000E-01 +0.00000000E+00
 -3.85972000E-01 -2.04676000E-01 +0.00000000E+00 +2.04676000E-01 -2.04676000E-01 +0.00000000E+00
 +7.95324000E-01 -2.04676000E-01 +0.00000000E+00 +1.38597200E+00 -2.04676000E-01 +0.00000000E+00
 -9.06480000E-02 -7.95324000E-01 +0.00000000E+00 +2.04676000E-01 -5.00000000E-01 +0.00000000E+00
 -9.06480000E-02 -2.04676000E-01 +0.00000000E+00 -3.85972000E-01 -5.00000000E-01 +0.00000000E+00
 -9.06480000E-02 -5.00000000E-01 +0.00000000E+00 +5.00000000E-01 -7.95324000E-01 +0.00000000E+00
 +7.95324000E-01 -5.00000000E-01 +0.00000000E+00 +5.00000000E-01 -2.04676000E-01 +0.00000000E+00
 +5.00000000E-01 -5.00000000E-01 +0.00000000E+00 +1.09064800E+00 -7.95324000E-01 +0.00000000E+00
 +1.38597200E+00 -5.00000000E-01 +0.00000000E+00 +1.09064800E+00 -2.04676000E-01 +0.00000000E+00
 +1.09064800E+00 -5.00000000E-01 +0.00000000E+00 +5.70140000E-02 -7.95324000E-01 +0.00000000E+00
 +2.04676000E-01 -6.47662000E-01 +0.00000000E+00 +5.70140000E-02 -5.00000000E-01 +0.00000000E+00
 -9.06480000E-02 -6.47662000E-01 +0.00000000E+00 +5.70140000E-02 -6.47662000E-01 +0.00000000E+00
 +3.52338000E-01 -7.95324000E-01 +0.00000000E+00 +5.00000000E-01 -6.47662000E-01 +0.00000000E+00
 +3.52338000E-01 -5.00000000E-01 +0.00000000E+00 +3.52338000E-01 -6.47662000E-01 +0.00000000E+00
 +6.47662000E-01 -7.95324000E-01 +0.00000000E+00 +7.95324000E-01 -6.47662000E-01 +0.00000000E+00
 +6.47662000E-01 -5.00000000E-01 +0.00000000E+00 +6.47662000E-01 -6.47662000E-01 +0.00000000E+00
 +7.95324000E-01 -3.52338000E-01 +0.00000000E+00 +6.47662000E-01 -2.04676000E-01 +0.00000000E+00
 +5.00000000E-01 -3.52338000E-01 +0.00000000E+00 +6.47662000E-01 -3.52338000E-01 +0.00000000E+00
 +3.52338000E-01 -2.04676000E-01 +0.00000000E+00 +2.04676000E-01 -3.52338000E-01 +0.00000000E+00
 +3.52338000E-01 -3.52338000E-01 +0.00000000E+00 +9.42986000E-01 -7.95324000E-01 +0.00000000E+00
 +1.09064800E+00 -6.47662000E-01 +0.00000000E+00 +9.42986000E-01 -5.00000000E-01 +0.00000000E+00
 +9.42986000E-01 -6.47662000E-01 +0.00000000E+00 +1.30845000E-01 -7.95324000E-01 +0.00000000E+00
 +2.04676000E-01 -7.21493000E-01 +0.00000000E+00 +1.30845000E-01 -6.47662000E-01 +0.00000000E+00
 +5.70140000E-02 -7.21493000E-01 +0.00000000E+00 +1.30845000E-01 -7.21493000E-01 +0.00000000E+00
 +2.78507000E-01 -7.95324000E-01 +0.00000000E+00 +3.52338000E-01 -7.21493000E-01 +0.00000000E+00
 +2.78507000E-01 -6.47662000E-01 +0.00000000E+00 +2.78507000E-01 -7.21493000E-01 +0.00000000E+00
 +4.26169000E-01 -7.95324000E-01 +0.00000000E+00 +5.00000000E-01 -7.21493000E-01 +0.00000000E+00
 +4.26169000E-01 -6.47662000E-01 +0.00000000E+00 +4.26169000E-01 -7.21493000E-01 +0.00000000E+00
 +5.00000000E-01 -5.73831000E-01 +0.00000000E+00 +4.26169000E-01 -5.00000000E-01 +0.00000000E+00
 +3.52338000E-01 -5.73831000E-01 +0.00000000E+00 +4.26169000E-01 -5.73831000E-01 +0.00000000E+00
 +2.78507000E-01 -5.00000000E-01 +0.00000000E+00 +2.04676000E-01 -5.73831000E-01 +0.00000000E+00
 +2.78507000E-01 -5.73831000E-01 +0.00000000E+00 +5.73831000E-01 -7.95324000E-01 +0.00000000E+00
 +6.47662000E-01 -7.21493000E-01 +0.00000000E+00 +5.73831000E-01 -6.47662000E-01 +0.00000000E+00
 +5.73831000E-01 -7.21493000E-01 +0.00000000E+00 +7.21493000E-01 -7.95324000E-01 +0.00000000E+00
 +7.95324000E-01 -7.21493000E-01 +0.00000000E+00 +7.21493000E-01 -6.47662000E-01 +0.00000000E+00
 +7.21493000E-01 -7.21493000E-01 +0.00000000E+00 +7.95324000E-01 -5.73831000E-01 +0.00000000E+00
 +7.21493000E-01 -5.00000000E-01 +0.00000000E+00 +6.47662000E-01 -5.73831000E-01 +0.00000000E+00
 +7.21493000E-01 -5.73831000E-01 +0.00000000E+00 +5.73831000E-01 -5.00000000E-01 +0.00000000E+00
 +5.73831000E-01 -5.73831000E-01 +0.00000000E+00 +6.47662000E-01 -4.26169000E-01 +0.00000000E+00
 +5.73831000E-01 -3.52338000E-01 +0.00000000E+00 +5.00000000E-01 -4.26169000E-01 +0.00000000E+00
 +5.73831000E-01 -4.26169000E-01 +0.00000000E+00 +6.47662000E-01 -2.78507000E-01 +0.00000000E+00
 +5.73831000E-01 -2.04676000E-01 +0.00000000E+00 +5.00000000E-01 -2.78507000E-01 +0.00000000E+00
 +5.73831000E-01 -2.78507000E-01 +0.00000000E+00 +4.26169000E-01 -3.52338000E-01 +0.00000000E+00
 +3.52338000E-01 -4.26169000E-01 +0.00000000E+00 +4.26169000E-01 -4.26169000E-01 +0.00000000E+00
 +4.26169000E-01 -2.04676000E-01 +0.00000000E+00 +3.52338000E-01 -2.78507000E-01 +0.00000000E+00
 +4.26169000E-01 -2.78507000E-01 +0.00000000E+00 +8.69155000E-01 -7.95324000E-01 +0.00000000E+00
 +9.42986000E-01 -7.21493000E-01 +0.00000000E+00 +8.69155000E-01 -6.47662000E-01 +0.00000000E+00
 +8.69155000E-01 -7.21493000E-01 +0.00000000E+00 +1.67760500E-01 -7.95324000E-01 +0.00000000E+00
 +2.04676000E-01 -7.58408500E-01 +0.00000000E+00 +1.67760500E-01 -7.21493000E-01 +0.00000000E+00
 +1.30845000E-01 -7.58408500E-01 +0.00000000E+00 +1.67760500E-01 -7.58408500E-01 +0.00000000E+00
 +2.41591500E-01 -7.95324000E-01 +0.00000000E+00 +2.78507000E-01 -7.58408500E-01 +0.00000000E+00
 +2.41591500E-01 -7.21493000E-01 +0.00000000E+00 +2.41591500E-01 -7.58408500E-01 +0.00000000E+00
 +3.15422500E-01 -7.95324000E-01 +0.00000000E+00 +3.52338000E-01 -7.58408500E-01 +0.00000000E+00
 +3.15422500E-01 -7.21493000E-01 +0.00000000E+00 +3.15422500E-01 -7.58408500E-01 +0.00000000E+00
 +3.52338000E-01 -6.84577500E-01 +0.00000000E+00 +3.15422500E-01 -6.47662000E-01 +0.00000000E+00
 +2.78507000E-01 -6.84577500E-01 +0.00000000E+00 +3.15422500E-01 -6.84577500E-01 +0.00000000E+00
 +2.41591500E-01 -6.47662000E-01 +0.00000000E+00 +2.04676000E-01 -6.84577500E-01 +0.00000000E+00
 +2.41591500E-01 -6.84577500E-01 +0.00000000E+00 +3.89253500E-01 -7.95324000E-01 +0.00000000E+00
 +4.26169000E-01 -7.58408500E-01 +0.00000000E+00 +3.89253500E-01 -7.21493000E-01 +0.00000000E+00
 +3.89253500E-01 -7.58408500E-01 +0.00000000E+00 +3.89253500E-01 -6.47662000E-01 +0.00000000E+00
 +4.26169000E-01 -6.10746500E-01 +0.00000000E+00 +3.89253500E-01 -5.73831000E-01 +0.00000000E+00
 +3.52338000E-01 -6.10746500E-01 +0.00000000E+00 +3.89253500E-01 -6.10746500E-01 +0.00000000E+00
 +4.63084500E-01 -6.47662000E-01 +0.00000000E+00 +5.00000000E-01 -6.10746500E-01 +0.00000000E+00
 +4.63084500E-01 -5.73831000E-01 +0.00000000E+00 +4.63084500E-01 -6.10746500E-01 +0.00000000E+00
 +5.00000000E-01 -5.36915500E-01 +0.00000000E+00 +4.63084500E-01 -5.00000000E-01 +0.00000000E+00
 +4.26169000E-01 -5.36915500E-01 +0.00000000E+00 +4.63084500E-01 -5.36915500E-01 +0.00000000E+00
 +3.89253500E-01 -5.00000000E-01 +0.00000000E+00 +3.52338000E-01 -5.36915500E-01 +0.00000000E+00
 +3.89253500E-01 -5.36915500E-01 +0.00000000E+00 +3.15422500E-01 -5.73831000E-01 +0.00000000E+00
 +2.78507000E-01 -6.10746500E-01 +0.00000000E+00 +3.15422500E-01 -6.10746500E-01 +0.00000000E+00
 +3.15422500E-01 -5.00000000E-01 +0.00000000E+00 +2.78507000E-01 -5.36915500E-01 +0.00000000E+00
 +3.15422500E-01 -5.36915500E-01 +0.00000000E+00 +6.10746500E-01 -7.95324000E-01 +0.00000000E+00
 +6.47662000E-01 -7.58408500E-01 +0.00000000E+00 +6.10746500E-01 -7.21493000E-01 +0.00000000E+00
 +5.73831000E-01 -7.58408500E-01 +0.00000000E+00 +6.10746500E-01 -7.58408500E-01 +0.00000000E+00
 +6.47662000E-01 -6.84577500E-01 +0.00000000E+00 +6.10746500E-01 -6.47662000E-01 +0.00000000E+00
 +5.73831000E-01 -6.84577500E-01 +0.00000000E+00 +6.10746500E-01 -6.84577500E-01 +0.00000000E+00
 +6.84577500E-01 -7.95324000E-01 +0.00000000E+00 +7.21493000E-01 -7.58408500E-01 +0.00000000E+00
 +6.84577500E-01 -7.21493000E-01 +0.00000000E+00 +6.84577500E-01 -7.58408500E-01 +0.00000000E+00
 +7.58408500E-01 -7.95324000E-01 +0.00000000E+00 +7.95324000E-01 -7.58408500E-01 +0.00000000E+00
 +7.58408500E-01 -7.21493000E-01 +0.00000000E+00 +7.58408500E-01 -7.58408500E-01 +0.00000000E+00
 +7.95324000E-01 -6.84577500E-01 +0.00000000E+00 +7.58408500E-01 -6.47662000E-01 +0.00000000E+00
 +7.21493000E-01 -6.84577500E-01 +0.00000000E+00 +7.58408500E-01 -6.84577500E-01 +0.00000000E+00
 +6.84577500E-01 -6.47662000E-01 +0.00000000E+00 +6.84577500E-01 -6.84577500E-01 +0.00000000E+00
 +7.21493000E-01 -6.10746500E-01 +0.00000000E+00 +6.84577500E-01 -5.73831000E-01 +0.00000000E+00
 +6.47662000E-01 -6.10746500E-01 +0.00000000E+00 +6.84577500E-01 -6.10746500E-01 +0.00000000E+00
 +7.21493000E-01 -5.36915500E-01 +0.00000000E+00 +6.84577500E-01 -5.00000000E-01 +0.00000000E+00
 +6.47662000E-01 -5.36915500E-01 +0.00000000E+00 +6.84577500E-01 -5.36915500E-01 +0.00000000E+00
 +5.36915500E-01 -6.47662000E-01 +0.00000000E+00 +5.73831000E-01 -6.10746500E-01 +0.00000000E+00
 +5.36915500E-01 -5.73831000E-01 +0.00000000E+00 +5.36915500E-01 -6.10746500E-01 +0.00000000E+00
 +6.10746500E-01 -5.73831000E-01 +0.00000000E+00 +6.10746500E-01 -6.10746500E-01 +0.00000000E+00
 +6.10746500E-01 -5.00000000E-01 +0.00000000E+00 +5.73831000E-01 -5.36915500E-01 +0.00000000E+00
 +6.10746500E-01 -5.36915500E-01 +0.00000000E+00 +5.36915500E-01 -5.00000000E-01 +0.00000000E+00
 +5.36915500E-01 -5.36915500E-01 +0.00000000E+00 +5.73831000E-01 -4.63084500E-01 +0.00000000E+00
 +5.36915500E-01 -4.26169000E-01 +0.00000000E+00 +5.00000000E-01 -4.63084500E-01 +0.00000000E+00
 +5.36915500E-01 -4.63084500E-01 +0.00000000E+00 +6.47662000E-01 -4.63084500E-01 +0.00000000E+00
 +6.10746500E-01 -4.26169000E-01 +0.00000000E+00 +6.10746500E-01 -4.63084500E-01 +0.00000000E+00
 +6.47662000E-01 -3.89253500E-01 +0.00000000E+00 +6.10746500E-01 -3.52338000E-01 +0.00000000E+00
 +5.73831000E-01 -3.89253500E-01 +0.00000000E+00 +6.10746500E-01 -3.89253500E-01 +0.00000000E+00
 +5.36915500E-01 -3.52338000E-01 +0.00000000E+00 +5.00000000E-01 -3.89253500E-01 +0.00000000E+00
 +5.36915500E-01 -3.89253500E-01 +0.00000000E+00 +5.73831000E-01 -3.15422500E-01 +0.00000000E+00
 +5.36915500E-01 -2.78507000E-01 +0.00000000E+00 +5.00000000E-01 -3.15422500E-01 +0.00000000E+00
[...]
CELL_DATA 346
SCALARS elemType int 1
LOOKUP_TABLE my_color
 1 1 1 1 1 1 1 1 1 1 1 1 1 1 1 1 1 1 1 1 1 1 1 1 1 1 1 1 1 1
 1 1 1 1 1 1 1 1 1 1 1 1 1 1 1 1 1 1 1 1 1 1 1 1 1 1 1 1 1 1
 1 1 1 1 1 1 1 1 1 1 1 1 1 1 1 1 1 1 1 1 1 1 1 1 1 1 1 1 1 1
 1 1 1 1 1 1 1 1 1 1 1 1 1 1 1 1 1 1 1 1 1 1 1 1 1 1 1 1 1 1
 1 1 1 1 1 1 1 1 1 1 1 1 1 1 1 1 1 1 1 1 1 1 1 1 1 1 1 1 1 1
 1 1 1 1 1 1 1 1 1 1 1 1 1 1 1 1 1 1 1 1 1 1 1 1 1 1 1 1 1 1
 1 1 1 1 1 1 1 1 1 1 1 1 1 1 1 1 1 1 1 1 1 1 1 1 1 1 1 1 1 1
 1 1 1 1 1 1 1 1 1 1 1 1 1 1 1 1 1 1 1 1 1 1 1 1 1 1 1 1 1 1
 1 1 1 1 1 1 1 1 1 1 1 1 1 1 1 1 1 1 1 1 1 1 1 1 1 1 1 1 1 1
 1 1 1 1 1 1 1 1 1 1 1 1 1 1 1 1 1 1 1 1 1 1 1 1 1 1 1 1 1 1
 1 1 1 1 1 1 1 1 1 1 1 1 1 1 1 1 1 1 1 1 1 1 1 1 1 1 1 1 1 1
 1 1 1 1 1 1 1 1 1 1 1 1 1 1 1 1
LOOKUP_TABLE my_color 2
1.0 0.0 1.0 1.0
0.0 1.0 1.0 1.0
