# vtk DataFile Version 2.0
vtk file: 2D Unstructured Grid /mnt/c/Users/aiday/Documents/GitHub/MeshStep/outputs/a_output_3_grid
ASCII

DATASET UNSTRUCTURED_GRID
POINTS 8 float
 -3.85972000E-01 -7.95324000E-01 +0.00000000E+00 +2.04676000E-01 -7.95324000E-01 +0.00000000E+00
 +7.95324000E-01 -7.95324000E-01 +0.00000000E+00 +1.38597200E+00 -7.95324000E-01 +0.00000000E+00
 -3.85972000E-01 -2.04676000E-01 +0.00000000E+00 +2.04676000E-01 -2.04676000E-01 +0.00000000E+00
 +7.95324000E-01 -2.04676000E-01 +0.00000000E+00 +1.38597200E+00 -2.04676000E-01 +0.00000000E+00

CELLS 3 15
4 0 1 5 4
4 1 2 6 5
4 2 3 7 6

CELL_TYPES 3
 9 9 9
CELL_DATA 3
SCALARS elemType int 1
LOOKUP_TABLE my_color
 1 1 1
LOOKUP_TABLE my_color 2
1.0 0.0 1.0 1.0
0.0 1.0 1.0 1.0
